
     Program PWSCF v.6.2 (svn rev. 13949:13950) starts on 19Apr2019 at 16:57:22 

     This program is part of the open-source Quantum ESPRESSO suite
     for quantum simulation of materials; please cite
         "P. Giannozzi et al., J. Phys.:Condens. Matter 21 395502 (2009);
         "P. Giannozzi et al., J. Phys.:Condens. Matter 29 465901 (2017);
          URL http://www.quantum-espresso.org", 
     in publications or presentations arising from this work. More details at
     http://www.quantum-espresso.org/quote

     Parallel version (MPI & OpenMP), running on     192 processor cores
     Number of MPI processes:               192
     Threads/MPI process:                     1

     MPI processes distributed on     8 nodes
     K-points division:     npool     =       8
     R & G space division:  proc/nbgrp/npool/nimage =      24
     Waiting for input...
     Reading input from standard input

     Current dimensions of program PWSCF are:
     Max number of different atomic species (ntypx) = 10
     Max number of k-points (npk) =  40000
     Max angular momentum in pseudopotentials (lmaxx) =  3
               file Al.aryjr-1.0.0-ld1.UPF: wavefunction(s)  3S 3P renormalized
               file Cu.aryjr-1.0.0-ld1.UPF: wavefunction(s)  4S 3P 3D renormalized
               file Zr.aryjr-1.0.0-ld1.UPF: wavefunction(s)  4S 4P renormalized

     Subspace diagonalization in iterative solution of the eigenvalue problem:
     one sub-group per band group will be used
     scalapack distributed-memory algorithm (size of sub-group:  3*  3 procs)

 
     Parallelization info
     --------------------
     sticks:   dense  smooth     PW     G-vecs:    dense   smooth      PW
     Min        1072     536    138               109499    38711    5089
     Max        1073     538    139               109503    38713    5092
     Sum       25749   12867   3333              2628049   929093  122183
 

     Title: 
     Zr49Cu49Al2                                                                


     bravais-lattice index     =            0
     lattice parameter (alat)  =      22.7304  a.u.
     unit-cell volume          =   11744.1708 (a.u.)^3
     number of atoms/cell      =          100
     number of atomic types    =            3
     number of electrons       =      1525.00
     number of Kohn-Sham states=         1086
     kinetic-energy cutoff     =      70.0000  Ry
     charge density cutoff     =     560.0000  Ry
     convergence threshold     =      1.0E-06
     mixing beta               =       0.4000
     number of iterations used =            8  plain     mixing
     Exchange-correlation      =  SLA  PW   PBX  PBC ( 1  4  3  4 0 0)

     celldm(1)=  22.730420  celldm(2)=   0.000000  celldm(3)=   0.000000
     celldm(4)=   0.000000  celldm(5)=   0.000000  celldm(6)=   0.000000

     crystal axes: (cart. coord. in units of alat)
               a(1) = (   1.000000   0.000000   0.000000 )  
               a(2) = (   0.000000   1.000000   0.500000 )  
               a(3) = (   0.000000   0.000000   1.000000 )  

     reciprocal axes: (cart. coord. in units 2 pi/alat)
               b(1) = (  1.000000  0.000000  0.000000 )  
               b(2) = (  0.000000  1.000000  0.000000 )  
               b(3) = (  0.000000 -0.500000  1.000000 )  


     PseudoPot. # 1 for Al read from file:
     /scratch/rmnvm/ary.junior/UPFs/Al.aryjr-1.0.0-ld1.UPF
     MD5 check sum: 23518be3108914e66f28d0b5ae5ea896
     Pseudo is Projector augmented-wave + core cor, Zval =  3.0
     Generated using "atomic" code by A. Dal Corso  v.5.3.0 svn rev. 11974
     Shape of augmentation charge: PSQ
     Using radial grid of 1135 points,  4 beta functions with: 
                l(1) =   0
                l(2) =   0
                l(3) =   1
                l(4) =   1
     Q(r) pseudized with 0 coefficients 


     PseudoPot. # 2 for Cu read from file:
     /scratch/rmnvm/ary.junior/UPFs/Cu.aryjr-1.0.0-ld1.UPF
     MD5 check sum: 9308548b6d8348cb0f7fa79efd90ef1e
     Pseudo is Projector augmented-wave + core cor, Zval = 19.0
     Generated using "atomic" code by A. Dal Corso  v.5.3.0 svn rev. 11974
     Shape of augmentation charge: PSQ
     Using radial grid of 1199 points,  6 beta functions with: 
                l(1) =   0
                l(2) =   0
                l(3) =   1
                l(4) =   1
                l(5) =   2
                l(6) =   2
     Q(r) pseudized with 0 coefficients 


     PseudoPot. # 3 for Zr read from file:
     /scratch/rmnvm/ary.junior/UPFs/Zr.aryjr-1.0.0-ld1.UPF
     MD5 check sum: 20f111a850f3481eb9ed9a4dbb9cca44
     Pseudo is Projector augmented-wave + core cor, Zval = 12.0
     Generated using "atomic" code by A. Dal Corso  v.5.3.0 svn rev. 11974
     Shape of augmentation charge: PSQ
     Using radial grid of 1225 points,  6 beta functions with: 
                l(1) =   0
                l(2) =   0
                l(3) =   1
                l(4) =   1
                l(5) =   2
                l(6) =   2
     Q(r) pseudized with 0 coefficients 


     atomic species   valence    mass     pseudopotential
        Al             3.00    26.98150     Al( 1.00)
        Cu            19.00    63.54630     Cu( 1.00)
        Zr            12.00    91.22400     Zr( 1.00)

     No symmetry found


                                    s                        frac. trans.

      isym =  1     identity                                     

 cryst.   s( 1) = (     1          0          0      )
                  (     0          1          0      )
                  (     0          0          1      )

 cart.    s( 1) = (  1.0000000  0.0000000  0.0000000 )
                  (  0.0000000  1.0000000  0.0000000 )
                  (  0.0000000  0.0000000  1.0000000 )


   Cartesian axes

     site n.     atom                  positions (alat units)
         1           Cu  tau(   1) = (   0.1532540   0.2277590   0.2706645  )
         2           Zr  tau(   2) = (   0.2632450  -0.0190070   0.1692995  )
         3           Cu  tau(   3) = (   0.1770600   0.1315620   0.4031560  )
         4           Cu  tau(   4) = (   0.1041000   0.0611130   0.6219435  )
         5           Zr  tau(   5) = (   0.0179050   0.0327190   0.8120595  )
         6           Cu  tau(   6) = (   0.2603280   0.0656340   0.7756380  )
         7           Cu  tau(   7) = (   0.1177750   0.1023710   1.0374215  )
         8           Cu  tau(   8) = (   0.2607600   0.3549830   0.2234265  )
         9           Zr  tau(   9) = (  -0.0132520   0.2717730   0.4424015  )
        10           Cu  tau(  10) = (   0.2185700   0.3285600   0.5011130  )
        11           Zr  tau(  11) = (   0.1152240   0.4699240   0.3993050  )
        12           Zr  tau(  12) = (   0.0615040   0.4952260   0.6820040  )
        13           Zr  tau(  13) = (   0.1385390   0.2523210   0.9326745  )
        14           Zr  tau(  14) = (   0.1772030   0.4605960   0.8923930  )
        15           Cu  tau(  15) = (   0.1140550   0.4794900   1.1703830  )
        16           Zr  tau(  16) = (   0.1178980   0.6997470   0.3671295  )
        17           Cu  tau(  17) = (   0.0775240   0.7324330   0.7853885  )
        18           Cu  tau(  18) = (   0.0595990   0.6651690   0.9458115  )
        19           Zr  tau(  19) = (   0.2258380   0.6737150   1.1226535  )
        20           Cu  tau(  20) = (  -0.0091150   0.6101890   1.1128695  )
        21           Cu  tau(  21) = (   0.0411810   0.9211880   0.4403750  )
        22           Cu  tau(  22) = (   0.1181520   0.8230530   0.6352785  )
        23           Zr  tau(  23) = (   0.1762560   0.9250130   0.8933455  )
        24           Cu  tau(  24) = (   0.0470770   0.8041300   1.1976940  )
        25           Cu  tau(  25) = (   0.1929970   0.8760390   1.1084725  )
        26           Zr  tau(  26) = (   0.3771530   0.2235980   0.3223160  )
        27           Cu  tau(  27) = (   0.5030380   0.0370620   0.2567620  )
        28           Cu  tau(  28) = (   0.3667550   0.0675060   0.4181340  )
        29           Zr  tau(  29) = (   0.2658580   0.2188980   0.6550860  )
        30           Cu  tau(  30) = (   0.3727640   0.2269500   0.8676210  )
        31           Zr  tau(  31) = (   0.4909010   0.0266550   0.8348285  )
        32           Zr  tau(  32) = (   0.3344380   0.1538590   1.0524855  )
        33           Zr  tau(  33) = (   0.5010310   0.4176720   0.2444540  )
        34           Al  tau(  34) = (   0.3891260   0.4541170   0.4777525  )
        35           Cu  tau(  35) = (   0.4270120   0.3295000   0.5828720  )
        36           Cu  tau(  36) = (   0.2812900   0.4786180   0.6940300  )
        37           Zr  tau(  37) = (   0.4431220   0.4213950   0.8408255  )
        38           Zr  tau(  38) = (   0.3330890   0.4543610   1.0757835  )
        39           Cu  tau(  39) = (   0.3161030   0.5456970   0.3470845  )
        40           Zr  tau(  40) = (   0.2556010   0.6436620   0.6236580  )
        41           Zr  tau(  41) = (   0.4786970   0.5775920   0.7280090  )
        42           Zr  tau(  42) = (   0.2806530   0.6952180   0.9012970  )
        43           Cu  tau(  43) = (   0.4540980   0.6339770   1.0107795  )
        44           Zr  tau(  44) = (   0.4302580   0.6894230   1.2837645  )
        45           Cu  tau(  45) = (   0.3223560   0.7658970   0.4898235  )
        46           Zr  tau(  46) = (   0.4766140   0.9323300   0.5186560  )
        47           Zr  tau(  47) = (   0.4135570   0.8280610   0.7556065  )
        48           Zr  tau(  48) = (   0.3922520   0.9679630   1.0693165  )
        49           Cu  tau(  49) = (   0.3999990   0.8197080   1.1660470  )
        50           Zr  tau(  50) = (   0.2492660   0.9077680   1.3650660  )
        51           Zr  tau(  51) = (   0.5957130   0.1641180   0.1317320  )
        52           Zr  tau(  52) = (   0.7575530   0.0797000   0.2742380  )
        53           Cu  tau(  53) = (   0.5410490   0.1728210   0.4528015  )
        54           Zr  tau(  54) = (   0.5357240   0.1819230   0.6900745  )
        55           Zr  tau(  55) = (   0.6936450   0.1353580   0.8676630  )
        56           Cu  tau(  56) = (   0.6996980   0.4938770   0.3705635  )
        57           Zr  tau(  57) = (   0.6154380   0.3496160   0.4356750  )
        58           Cu  tau(  58) = (   0.6163860   0.3829110   0.6814135  )
        59           Zr  tau(  59) = (   0.7406390   0.3425790   0.8461265  )
        60           Zr  tau(  60) = (   0.7412480   0.3575700   1.1164410  )
        61           Cu  tau(  61) = (   0.5350970   0.2943340   0.9790680  )
        62           Zr  tau(  62) = (   0.5219300   0.6602630   0.5104095  )
        63           Cu  tau(  63) = (   0.6764360   0.5422660   0.6223100  )
        64           Cu  tau(  64) = (   0.6518880   0.7490820   0.7557370  )
        65           Zr  tau(  65) = (   0.6685970   0.5790940   0.9090020  )
        66           Cu  tau(  66) = (   0.5727900   0.5080700   1.0718450  )
        67           Cu  tau(  67) = (   0.6643170   0.6087910   1.2740235  )
        68           Cu  tau(  68) = (   0.6453030   0.7910700   0.4243940  )
        69           Cu  tau(  69) = (   0.6369180   0.8868360   0.6834290  )
        70           Zr  tau(  70) = (   0.6303260   0.9759980   0.9277480  )
        71           Cu  tau(  71) = (   0.5295050   0.7794890   0.9692505  )
        72           Cu  tau(  72) = (   0.6242650   0.9611470   1.1328715  )
        73           Zr  tau(  73) = (   0.6264570   0.7657160   1.1686680  )
        74           Cu  tau(  74) = (   0.6866730   0.9527310   1.4123705  )
        75           Cu  tau(  75) = (   0.7980740   0.2687160   0.2642040  )
        76           Zr  tau(  76) = (   1.0111800   0.0294580   0.2038360  )
        77           Zr  tau(  77) = (   0.7674370   0.2250570   0.5426265  )
        78           Cu  tau(  78) = (   0.9704410   0.0880180   0.4796670  )
        79           Zr  tau(  79) = (   0.8233740   0.0724900   0.6380460  )
        80           Cu  tau(  80) = (   0.8934150   0.2197080   0.9099920  )
        81           Zr  tau(  81) = (   0.8687050   0.0849730   1.0199795  )
        82           Zr  tau(  82) = (   0.9982840   0.2941060   0.1820560  )
        83           Zr  tau(  83) = (   0.8616490   0.4609810   0.4825035  )
        84           Cu  tau(  84) = (   0.8132930   0.4350980   0.6967050  )
        85           Zr  tau(  85) = (   0.9981660   0.2752820   0.7182440  )
        86           Cu  tau(  86) = (   0.9756890   0.4038440   1.0194720  )
        87           Zr  tau(  87) = (   0.9133460   0.5484550   0.2991065  )
        88           Zr  tau(  88) = (   0.7753420   0.6984470   0.5408275  )
        89           Al  tau(  89) = (   1.0048900   0.6548750   0.5751675  )
        90           Zr  tau(  90) = (   0.8636860   0.6537190   0.7882915  )
        91           Cu  tau(  91) = (   0.9239290   0.4981350   0.8911245  )
        92           Cu  tau(  92) = (   0.8484040   0.7178360   1.0601200  )
        93           Cu  tau(  93) = (   0.7838010   0.5560280   1.0979930  )
        94           Cu  tau(  94) = (   0.9491700   0.8012760   0.5280100  )
        95           Cu  tau(  95) = (   0.7960670   0.9101280   0.5551900  )
        96           Zr  tau(  96) = (   0.8820060   0.8729030   0.7812275  )
        97           Zr  tau(  97) = (   0.9756070   0.8735870   1.0222735  )
        98           Cu  tau(  98) = (   0.7438140   0.8240090   0.9842255  )
        99           Cu  tau(  99) = (   0.8036460   0.9168100   1.2198080  )
       100           Zr  tau( 100) = (   0.8574510   0.7776480   1.3042470  )

   Crystallographic axes

     site n.     atom                  positions (cryst. coord.)
         1           Cu  tau(   1) = (  0.1532540  0.2277590  0.1567850  )
         2           Zr  tau(   2) = (  0.2632450 -0.0190070  0.1788030  )
         3           Cu  tau(   3) = (  0.1770600  0.1315620  0.3373750  )
         4           Cu  tau(   4) = (  0.1041000  0.0611130  0.5913870  )
         5           Zr  tau(   5) = (  0.0179050  0.0327190  0.7957000  )
         6           Cu  tau(   6) = (  0.2603280  0.0656340  0.7428210  )
         7           Cu  tau(   7) = (  0.1177750  0.1023710  0.9862360  )
         8           Cu  tau(   8) = (  0.2607600  0.3549830  0.0459350  )
         9           Zr  tau(   9) = ( -0.0132520  0.2717730  0.3065150  )
        10           Cu  tau(  10) = (  0.2185700  0.3285600  0.3368330  )
        11           Zr  tau(  11) = (  0.1152240  0.4699240  0.1643430  )
        12           Zr  tau(  12) = (  0.0615040  0.4952260  0.4343910  )
        13           Zr  tau(  13) = (  0.1385390  0.2523210  0.8065140  )
        14           Zr  tau(  14) = (  0.1772030  0.4605960  0.6620950  )
        15           Cu  tau(  15) = (  0.1140550  0.4794900  0.9306380  )
        16           Zr  tau(  16) = (  0.1178980  0.6997470  0.0172560  )
        17           Cu  tau(  17) = (  0.0775240  0.7324330  0.4191720  )
        18           Cu  tau(  18) = (  0.0595990  0.6651690  0.6132270  )
        19           Zr  tau(  19) = (  0.2258380  0.6737150  0.7857960  )
        20           Cu  tau(  20) = ( -0.0091150  0.6101890  0.8077750  )
        21           Cu  tau(  21) = (  0.0411810  0.9211880 -0.0202190  )
        22           Cu  tau(  22) = (  0.1181520  0.8230530  0.2237520  )
        23           Zr  tau(  23) = (  0.1762560  0.9250130  0.4308390  )
        24           Cu  tau(  24) = (  0.0470770  0.8041300  0.7956290  )
        25           Cu  tau(  25) = (  0.1929970  0.8760390  0.6704530  )
        26           Zr  tau(  26) = (  0.3771530  0.2235980  0.2105170  )
        27           Cu  tau(  27) = (  0.5030380  0.0370620  0.2382310  )
        28           Cu  tau(  28) = (  0.3667550  0.0675060  0.3843810  )
        29           Zr  tau(  29) = (  0.2658580  0.2188980  0.5456370  )
        30           Cu  tau(  30) = (  0.3727640  0.2269500  0.7541460  )
        31           Zr  tau(  31) = (  0.4909010  0.0266550  0.8215010  )
        32           Zr  tau(  32) = (  0.3344380  0.1538590  0.9755560  )
        33           Zr  tau(  33) = (  0.5010310  0.4176720  0.0356180  )
        34           Al  tau(  34) = (  0.3891260  0.4541170  0.2506940  )
        35           Cu  tau(  35) = (  0.4270120  0.3295000  0.4181220  )
        36           Cu  tau(  36) = (  0.2812900  0.4786180  0.4547210  )
        37           Zr  tau(  37) = (  0.4431220  0.4213950  0.6301280  )
        38           Zr  tau(  38) = (  0.3330890  0.4543610  0.8486030  )
        39           Cu  tau(  39) = (  0.3161030  0.5456970  0.0742360  )
        40           Zr  tau(  40) = (  0.2556010  0.6436620  0.3018270  )
        41           Zr  tau(  41) = (  0.4786970  0.5775920  0.4392130  )
        42           Zr  tau(  42) = (  0.2806530  0.6952180  0.5536880  )
        43           Cu  tau(  43) = (  0.4540980  0.6339770  0.6937910  )
        44           Zr  tau(  44) = (  0.4302580  0.6894230  0.9390530  )
        45           Cu  tau(  45) = (  0.3223560  0.7658970  0.1068750  )
        46           Zr  tau(  46) = (  0.4766140  0.9323300  0.0524910  )
        47           Zr  tau(  47) = (  0.4135570  0.8280610  0.3415760  )
        48           Zr  tau(  48) = (  0.3922520  0.9679630  0.5853350  )
        49           Cu  tau(  49) = (  0.3999990  0.8197080  0.7561930  )
        50           Zr  tau(  50) = (  0.2492660  0.9077680  0.9111820  )
        51           Zr  tau(  51) = (  0.5957130  0.1641180  0.0496730  )
        52           Zr  tau(  52) = (  0.7575530  0.0797000  0.2343880  )
        53           Cu  tau(  53) = (  0.5410490  0.1728210  0.3663910  )
        54           Zr  tau(  54) = (  0.5357240  0.1819230  0.5991130  )
        55           Zr  tau(  55) = (  0.6936450  0.1353580  0.7999840  )
        56           Cu  tau(  56) = (  0.6996980  0.4938770  0.1236250  )
        57           Zr  tau(  57) = (  0.6154380  0.3496160  0.2608670  )
        58           Cu  tau(  58) = (  0.6163860  0.3829110  0.4899580  )
        59           Zr  tau(  59) = (  0.7406390  0.3425790  0.6748370  )
        60           Zr  tau(  60) = (  0.7412480  0.3575700  0.9376560  )
        61           Cu  tau(  61) = (  0.5350970  0.2943340  0.8319010  )
        62           Zr  tau(  62) = (  0.5219300  0.6602630  0.1802780  )
        63           Cu  tau(  63) = (  0.6764360  0.5422660  0.3511770  )
        64           Cu  tau(  64) = (  0.6518880  0.7490820  0.3811960  )
        65           Zr  tau(  65) = (  0.6685970  0.5790940  0.6194550  )
        66           Cu  tau(  66) = (  0.5727900  0.5080700  0.8178100  )
        67           Cu  tau(  67) = (  0.6643170  0.6087910  0.9696280  )
        68           Cu  tau(  68) = (  0.6453030  0.7910700  0.0288590  )
        69           Cu  tau(  69) = (  0.6369180  0.8868360  0.2400110  )
        70           Zr  tau(  70) = (  0.6303260  0.9759980  0.4397490  )
        71           Cu  tau(  71) = (  0.5295050  0.7794890  0.5795060  )
        72           Cu  tau(  72) = (  0.6242650  0.9611470  0.6522980  )
        73           Zr  tau(  73) = (  0.6264570  0.7657160  0.7858100  )
        74           Cu  tau(  74) = (  0.6866730  0.9527310  0.9360050  )
        75           Cu  tau(  75) = (  0.7980740  0.2687160  0.1298460  )
        76           Zr  tau(  76) = (  1.0111800  0.0294580  0.1891070  )
        77           Zr  tau(  77) = (  0.7674370  0.2250570  0.4300980  )
        78           Cu  tau(  78) = (  0.9704410  0.0880180  0.4356580  )
        79           Zr  tau(  79) = (  0.8233740  0.0724900  0.6018010  )
        80           Cu  tau(  80) = (  0.8934150  0.2197080  0.8001380  )
        81           Zr  tau(  81) = (  0.8687050  0.0849730  0.9774930  )
        82           Zr  tau(  82) = (  0.9982840  0.2941060  0.0350030  )
        83           Zr  tau(  83) = (  0.8616490  0.4609810  0.2520130  )
        84           Cu  tau(  84) = (  0.8132930  0.4350980  0.4791560  )
        85           Zr  tau(  85) = (  0.9981660  0.2752820  0.5806030  )
        86           Cu  tau(  86) = (  0.9756890  0.4038440  0.8175500  )
        87           Zr  tau(  87) = (  0.9133460  0.5484550  0.0248790  )
        88           Zr  tau(  88) = (  0.7753420  0.6984470  0.1916040  )
        89           Al  tau(  89) = (  1.0048900  0.6548750  0.2477300  )
        90           Zr  tau(  90) = (  0.8636860  0.6537190  0.4614320  )
        91           Cu  tau(  91) = (  0.9239290  0.4981350  0.6420570  )
        92           Cu  tau(  92) = (  0.8484040  0.7178360  0.7012020  )
        93           Cu  tau(  93) = (  0.7838010  0.5560280  0.8199790  )
        94           Cu  tau(  94) = (  0.9491700  0.8012760  0.1273720  )
        95           Cu  tau(  95) = (  0.7960670  0.9101280  0.1001260  )
        96           Zr  tau(  96) = (  0.8820060  0.8729030  0.3447760  )
        97           Zr  tau(  97) = (  0.9756070  0.8735870  0.5854800  )
        98           Cu  tau(  98) = (  0.7438140  0.8240090  0.5722210  )
        99           Cu  tau(  99) = (  0.8036460  0.9168100  0.7614030  )
       100           Zr  tau( 100) = (  0.8574510  0.7776480  0.9154230  )

     number of k points=     8  Fermi-Dirac smearing, width (Ry)=  0.0080
                       cart. coord. in units 2pi/alat
        k(    1) = (   0.2500000   0.1250000   0.2500000), wk =   0.2500000
        k(    2) = (   0.2500000   0.3750000  -0.2500000), wk =   0.2500000
        k(    3) = (   0.2500000  -0.3750000   0.2500000), wk =   0.2500000
        k(    4) = (   0.2500000  -0.1250000  -0.2500000), wk =   0.2500000
        k(    5) = (  -0.2500000   0.1250000   0.2500000), wk =   0.2500000
        k(    6) = (  -0.2500000   0.3750000  -0.2500000), wk =   0.2500000
        k(    7) = (  -0.2500000  -0.3750000   0.2500000), wk =   0.2500000
        k(    8) = (  -0.2500000  -0.1250000  -0.2500000), wk =   0.2500000

                       cryst. coord.
        k(    1) = (   0.2500000   0.2500000   0.2500000), wk =   0.2500000
        k(    2) = (   0.2500000   0.2500000  -0.2500000), wk =   0.2500000
        k(    3) = (   0.2500000  -0.2500000   0.2500000), wk =   0.2500000
        k(    4) = (   0.2500000  -0.2500000  -0.2500000), wk =   0.2500000
        k(    5) = (  -0.2500000   0.2500000   0.2500000), wk =   0.2500000
        k(    6) = (  -0.2500000   0.2500000  -0.2500000), wk =   0.2500000
        k(    7) = (  -0.2500000  -0.2500000   0.2500000), wk =   0.2500000
        k(    8) = (  -0.2500000  -0.2500000  -0.2500000), wk =   0.2500000

     Dense  grid:  2628049 G-vectors     FFT dimensions: ( 180, 192, 180)

     Smooth grid:   929093 G-vectors     FFT dimensions: ( 125, 135, 125)

     Dynamical RAM for                 wfc:      80.19 MB

     Dynamical RAM for     wfc (w. buffer):      80.19 MB

     Dynamical RAM for           str. fact:       5.01 MB

     Dynamical RAM for           local pot:       0.00 MB

     Dynamical RAM for          nlocal pot:     131.43 MB

     Dynamical RAM for                qrad:      20.58 MB

     Dynamical RAM for          rho,v,vnew:      11.34 MB

     Dynamical RAM for               rhoin:       3.78 MB

     Dynamical RAM for            rho*nmix:      26.73 MB

     Dynamical RAM for           G-vectors:       6.56 MB

     Dynamical RAM for          h,s,v(r/c):      95.98 MB

     Dynamical RAM for          <psi|beta>:      29.50 MB

     Dynamical RAM for                 psi:     320.75 MB

     Dynamical RAM for                hpsi:     320.75 MB

     Dynamical RAM for                spsi:     320.75 MB

     Dynamical RAM for      wfcinit/wfcrot:     197.10 MB

     Dynamical RAM for           addusdens:     392.66 MB

     Dynamical RAM for          addusforce:     809.93 MB

     Estimated static dynamical RAM per process >     302.86 MB

     Estimated max dynamical RAM per process >       1.36 GB

     Estimated total dynamical RAM >     260.73 GB

     Initial potential from superposition of free atoms

     starting charge 1524.87645, renormalised to 1525.00000
     Starting wfc are 1135 randomized atomic wfcs
     Checking if some PAW data can be deallocated... 
       PAW data deallocated on  188 nodes for type:  1
       PAW data deallocated on   99 nodes for type:  2
       PAW data deallocated on   97 nodes for type:  3

     total cpu time spent up to now is       41.0 secs

     Self-consistent Calculation

     iteration #  1     ecut=    70.00 Ry     beta= 0.40
     Davidson diagonalization with overlap
     ethr =  1.00E-02,  avg # of iterations =  4.0

     total cpu time spent up to now is      256.2 secs

     total energy              =  -38850.18823379 Ry
     Harris-Foulkes estimate   =  -38997.11201375 Ry
     estimated scf accuracy    <     238.48473505 Ry

     iteration #  2     ecut=    70.00 Ry     beta= 0.40
     Davidson diagonalization with overlap
     ethr =  1.00E-02,  avg # of iterations =  3.0

     total cpu time spent up to now is      485.4 secs

     total energy              =  -38879.14451899 Ry
     Harris-Foulkes estimate   =  -39168.97376956 Ry
     estimated scf accuracy    <    1496.37864205 Ry

     iteration #  3     ecut=    70.00 Ry     beta= 0.40
     Davidson diagonalization with overlap
     ethr =  1.00E-02,  avg # of iterations =  3.0

     total cpu time spent up to now is      656.1 secs

     total energy              =  -38940.83020995 Ry
     Harris-Foulkes estimate   =  -39056.01528150 Ry
     estimated scf accuracy    <     951.29174286 Ry

     iteration #  4     ecut=    70.00 Ry     beta= 0.40
     Davidson diagonalization with overlap
     ethr =  1.00E-02,  avg # of iterations =  3.0

     total cpu time spent up to now is      794.1 secs

     total energy              =  -38984.31940987 Ry
     Harris-Foulkes estimate   =  -39008.16090460 Ry
     estimated scf accuracy    <     163.51997067 Ry

     iteration #  5     ecut=    70.00 Ry     beta= 0.40
     Davidson diagonalization with overlap
     ethr =  1.00E-02,  avg # of iterations =  2.0

     total cpu time spent up to now is      906.2 secs

     total energy              =  -38987.03276515 Ry
     Harris-Foulkes estimate   =  -38999.00452221 Ry
     estimated scf accuracy    <     152.73049694 Ry

     iteration #  6     ecut=    70.00 Ry     beta= 0.40
     Davidson diagonalization with overlap
     ethr =  1.00E-02,  avg # of iterations =  1.0

     total cpu time spent up to now is     1008.0 secs

     total energy              =  -38988.64328503 Ry
     Harris-Foulkes estimate   =  -38992.06147158 Ry
     estimated scf accuracy    <      50.62205543 Ry

     iteration #  7     ecut=    70.00 Ry     beta= 0.40
     Davidson diagonalization with overlap
     ethr =  3.32E-03,  avg # of iterations =  1.0

     total cpu time spent up to now is     1110.3 secs

     total energy              =  -38987.43442792 Ry
     Harris-Foulkes estimate   =  -38990.10942361 Ry
     estimated scf accuracy    <      43.04518174 Ry

     iteration #  8     ecut=    70.00 Ry     beta= 0.40
     Davidson diagonalization with overlap
     ethr =  2.82E-03,  avg # of iterations =  1.0

     total cpu time spent up to now is     1212.2 secs

     total energy              =  -38985.55234420 Ry
     Harris-Foulkes estimate   =  -38988.22354096 Ry
     estimated scf accuracy    <      23.27256635 Ry

     iteration #  9     ecut=    70.00 Ry     beta= 0.40
     Davidson diagonalization with overlap
     ethr =  1.53E-03,  avg # of iterations =  1.0

     total cpu time spent up to now is     1314.0 secs

     total energy              =  -38985.01137562 Ry
     Harris-Foulkes estimate   =  -38986.28647390 Ry
     estimated scf accuracy    <      11.08058011 Ry

     iteration # 10     ecut=    70.00 Ry     beta= 0.40
     Davidson diagonalization with overlap
     ethr =  7.27E-04,  avg # of iterations =  2.2

     total cpu time spent up to now is     1435.9 secs

     total energy              =  -38983.74707301 Ry
     Harris-Foulkes estimate   =  -38985.59708737 Ry
     estimated scf accuracy    <       7.85266790 Ry

     iteration # 11     ecut=    70.00 Ry     beta= 0.40
     Davidson diagonalization with overlap
     ethr =  5.15E-04,  avg # of iterations =  4.1

     total cpu time spent up to now is     1599.1 secs

     total energy              =  -38983.38137087 Ry
     Harris-Foulkes estimate   =  -38986.11501751 Ry
     estimated scf accuracy    <      25.60336522 Ry

     iteration # 12     ecut=    70.00 Ry     beta= 0.40
     Davidson diagonalization with overlap
     ethr =  5.15E-04,  avg # of iterations =  2.0

     total cpu time spent up to now is     1713.2 secs

     total energy              =  -38984.49802844 Ry
     Harris-Foulkes estimate   =  -38985.41939816 Ry
     estimated scf accuracy    <       6.67210487 Ry

     iteration # 13     ecut=    70.00 Ry     beta= 0.40
     Davidson diagonalization with overlap
     ethr =  4.38E-04,  avg # of iterations =  1.5

     total cpu time spent up to now is     1825.3 secs

     total energy              =  -38984.67519084 Ry
     Harris-Foulkes estimate   =  -38985.43097994 Ry
     estimated scf accuracy    <      10.22835040 Ry

     iteration # 14     ecut=    70.00 Ry     beta= 0.40
     Davidson diagonalization with overlap
     ethr =  4.38E-04,  avg # of iterations =  1.0

     total cpu time spent up to now is     1927.3 secs

     total energy              =  -38984.98895837 Ry
     Harris-Foulkes estimate   =  -38985.08135209 Ry
     estimated scf accuracy    <       1.06733504 Ry

     iteration # 15     ecut=    70.00 Ry     beta= 0.40
     Davidson diagonalization with overlap
     ethr =  7.00E-05,  avg # of iterations =  2.2

     total cpu time spent up to now is     2058.7 secs

     total energy              =  -38985.02163684 Ry
     Harris-Foulkes estimate   =  -38985.05683506 Ry
     estimated scf accuracy    <       0.40011677 Ry

     iteration # 16     ecut=    70.00 Ry     beta= 0.40
     Davidson diagonalization with overlap
     ethr =  2.62E-05,  avg # of iterations =  5.4

     total cpu time spent up to now is     2222.0 secs

     total energy              =  -38985.01468018 Ry
     Harris-Foulkes estimate   =  -38985.06633111 Ry
     estimated scf accuracy    <       0.56405819 Ry

     iteration # 17     ecut=    70.00 Ry     beta= 0.40
     Davidson diagonalization with overlap
     ethr =  2.62E-05,  avg # of iterations =  1.4

     total cpu time spent up to now is     2332.8 secs

     total energy              =  -38985.02805107 Ry
     Harris-Foulkes estimate   =  -38985.05064597 Ry
     estimated scf accuracy    <       0.34136558 Ry

     iteration # 18     ecut=    70.00 Ry     beta= 0.40
     Davidson diagonalization with overlap
     ethr =  2.24E-05,  avg # of iterations =  1.0

     total cpu time spent up to now is     2434.6 secs

     total energy              =  -38985.03215968 Ry
     Harris-Foulkes estimate   =  -38985.04466001 Ry
     estimated scf accuracy    <       0.11414858 Ry

     iteration # 19     ecut=    70.00 Ry     beta= 0.40
     Davidson diagonalization with overlap
     ethr =  7.49E-06,  avg # of iterations =  2.0

     total cpu time spent up to now is     2557.1 secs

     total energy              =  -38985.03454316 Ry
     Harris-Foulkes estimate   =  -38985.03948579 Ry
     estimated scf accuracy    <       0.04074167 Ry

     iteration # 20     ecut=    70.00 Ry     beta= 0.40
     Davidson diagonalization with overlap
     ethr =  2.67E-06,  avg # of iterations =  4.1

     total cpu time spent up to now is     2708.9 secs

     total energy              =  -38985.03223101 Ry
     Harris-Foulkes estimate   =  -38985.03948048 Ry
     estimated scf accuracy    <       0.04792946 Ry

     iteration # 21     ecut=    70.00 Ry     beta= 0.40
     Davidson diagonalization with overlap
     ethr =  2.67E-06,  avg # of iterations =  5.8

     total cpu time spent up to now is     2880.7 secs

     total energy              =  -38985.02698543 Ry
     Harris-Foulkes estimate   =  -38985.04563933 Ry
     estimated scf accuracy    <       0.21378284 Ry

     iteration # 22     ecut=    70.00 Ry     beta= 0.40
     Davidson diagonalization with overlap
     ethr =  2.67E-06,  avg # of iterations =  4.5

     total cpu time spent up to now is     3030.6 secs

     total energy              =  -38985.03252469 Ry
     Harris-Foulkes estimate   =  -38985.04103104 Ry
     estimated scf accuracy    <       0.10728968 Ry

     iteration # 23     ecut=    70.00 Ry     beta= 0.40
     Davidson diagonalization with overlap
     ethr =  2.67E-06,  avg # of iterations =  2.6

     total cpu time spent up to now is     3152.7 secs

     total energy              =  -38985.03468040 Ry
     Harris-Foulkes estimate   =  -38985.03826169 Ry
     estimated scf accuracy    <       0.03029756 Ry

     iteration # 24     ecut=    70.00 Ry     beta= 0.40
     Davidson diagonalization with overlap
     ethr =  1.99E-06,  avg # of iterations =  3.8

     total cpu time spent up to now is     3288.9 secs

     total energy              =  -38985.03173596 Ry
     Harris-Foulkes estimate   =  -38985.04162582 Ry
     estimated scf accuracy    <       0.14152621 Ry

     iteration # 25     ecut=    70.00 Ry     beta= 0.40
     Davidson diagonalization with overlap
     ethr =  1.99E-06,  avg # of iterations =  3.5

     total cpu time spent up to now is     3425.5 secs

     total energy              =  -38985.03443086 Ry
     Harris-Foulkes estimate   =  -38985.03949810 Ry
     estimated scf accuracy    <       0.06862596 Ry

     iteration # 26     ecut=    70.00 Ry     beta= 0.40
     Davidson diagonalization with overlap
     ethr =  1.99E-06,  avg # of iterations =  1.8

     total cpu time spent up to now is     3537.9 secs

     total energy              =  -38985.03657487 Ry
     Harris-Foulkes estimate   =  -38985.03743438 Ry
     estimated scf accuracy    <       0.00905038 Ry

     iteration # 27     ecut=    70.00 Ry     beta= 0.40
     Davidson diagonalization with overlap
     ethr =  5.93E-07,  avg # of iterations =  1.0

     total cpu time spent up to now is     3639.6 secs

     total energy              =  -38985.03673340 Ry
     Harris-Foulkes estimate   =  -38985.03731585 Ry
     estimated scf accuracy    <       0.00609073 Ry

     iteration # 28     ecut=    70.00 Ry     beta= 0.40
     Davidson diagonalization with overlap
     ethr =  3.99E-07,  avg # of iterations =  1.0

     total cpu time spent up to now is     3741.3 secs

     total energy              =  -38985.03682932 Ry
     Harris-Foulkes estimate   =  -38985.03729834 Ry
     estimated scf accuracy    <       0.00658540 Ry

     iteration # 29     ecut=    70.00 Ry     beta= 0.40
     Davidson diagonalization with overlap
     ethr =  3.99E-07,  avg # of iterations =  1.0

     total cpu time spent up to now is     3842.9 secs

     total energy              =  -38985.03698125 Ry
     Harris-Foulkes estimate   =  -38985.03716942 Ry
     estimated scf accuracy    <       0.00177869 Ry

     iteration # 30     ecut=    70.00 Ry     beta= 0.40
     Davidson diagonalization with overlap
     ethr =  1.17E-07,  avg # of iterations =  1.0

     total cpu time spent up to now is     3945.3 secs

     total energy              =  -38985.03704074 Ry
     Harris-Foulkes estimate   =  -38985.03711843 Ry
     estimated scf accuracy    <       0.00067233 Ry

     iteration # 31     ecut=    70.00 Ry     beta= 0.40
     Davidson diagonalization with overlap
     ethr =  4.41E-08,  avg # of iterations =  1.0

     total cpu time spent up to now is     4047.5 secs

     total energy              =  -38985.03702461 Ry
     Harris-Foulkes estimate   =  -38985.03714119 Ry
     estimated scf accuracy    <       0.00130397 Ry

     iteration # 32     ecut=    70.00 Ry     beta= 0.40
     Davidson diagonalization with overlap
     ethr =  4.41E-08,  avg # of iterations =  1.0

     total cpu time spent up to now is     4149.2 secs

     total energy              =  -38985.03702199 Ry
     Harris-Foulkes estimate   =  -38985.03715066 Ry
     estimated scf accuracy    <       0.00168137 Ry

     iteration # 33     ecut=    70.00 Ry     beta= 0.40
     Davidson diagonalization with overlap
     ethr =  4.41E-08,  avg # of iterations =  1.0

     total cpu time spent up to now is     4250.9 secs

     total energy              =  -38985.03705255 Ry
     Harris-Foulkes estimate   =  -38985.03713124 Ry
     estimated scf accuracy    <       0.00103290 Ry

     iteration # 34     ecut=    70.00 Ry     beta= 0.40
     Davidson diagonalization with overlap
     ethr =  4.41E-08,  avg # of iterations =  1.0

     total cpu time spent up to now is     4352.5 secs

     total energy              =  -38985.03708189 Ry
     Harris-Foulkes estimate   =  -38985.03710415 Ry
     estimated scf accuracy    <       0.00020341 Ry

     iteration # 35     ecut=    70.00 Ry     beta= 0.40
     Davidson diagonalization with overlap
     ethr =  1.33E-08,  avg # of iterations =  1.0

     total cpu time spent up to now is     4454.3 secs

     total energy              =  -38985.03706769 Ry
     Harris-Foulkes estimate   =  -38985.03711919 Ry
     estimated scf accuracy    <       0.00072437 Ry

     iteration # 36     ecut=    70.00 Ry     beta= 0.40
     Davidson diagonalization with overlap
     ethr =  1.33E-08,  avg # of iterations =  1.0

     total cpu time spent up to now is     4555.9 secs

     total energy              =  -38985.03707853 Ry
     Harris-Foulkes estimate   =  -38985.03711094 Ry
     estimated scf accuracy    <       0.00041914 Ry

     iteration # 37     ecut=    70.00 Ry     beta= 0.40
     Davidson diagonalization with overlap
     ethr =  1.33E-08,  avg # of iterations =  1.0

     total cpu time spent up to now is     4658.1 secs

     total energy              =  -38985.03708450 Ry
     Harris-Foulkes estimate   =  -38985.03710708 Ry
     estimated scf accuracy    <       0.00025687 Ry

     iteration # 38     ecut=    70.00 Ry     beta= 0.40
     Davidson diagonalization with overlap
     ethr =  1.33E-08,  avg # of iterations =  1.0

     total cpu time spent up to now is     4759.9 secs

     total energy              =  -38985.03708733 Ry
     Harris-Foulkes estimate   =  -38985.03710697 Ry
     estimated scf accuracy    <       0.00027815 Ry

     iteration # 39     ecut=    70.00 Ry     beta= 0.40
     Davidson diagonalization with overlap
     ethr =  1.33E-08,  avg # of iterations =  1.0

     total cpu time spent up to now is     4861.6 secs

     total energy              =  -38985.03709345 Ry
     Harris-Foulkes estimate   =  -38985.03710115 Ry
     estimated scf accuracy    <       0.00007539 Ry

     iteration # 40     ecut=    70.00 Ry     beta= 0.40
     Davidson diagonalization with overlap
     ethr =  4.94E-09,  avg # of iterations =  1.0

     total cpu time spent up to now is     4963.5 secs

     total energy              =  -38985.03709512 Ry
     Harris-Foulkes estimate   =  -38985.03710046 Ry
     estimated scf accuracy    <       0.00006174 Ry

     iteration # 41     ecut=    70.00 Ry     beta= 0.40
     Davidson diagonalization with overlap
     ethr =  4.05E-09,  avg # of iterations =  1.0

     total cpu time spent up to now is     5065.3 secs

     total energy              =  -38985.03709667 Ry
     Harris-Foulkes estimate   =  -38985.03709988 Ry
     estimated scf accuracy    <       0.00003278 Ry

     iteration # 42     ecut=    70.00 Ry     beta= 0.40
     Davidson diagonalization with overlap
     ethr =  2.15E-09,  avg # of iterations =  1.0

     total cpu time spent up to now is     5167.6 secs

     total energy              =  -38985.03709638 Ry
     Harris-Foulkes estimate   =  -38985.03710035 Ry
     estimated scf accuracy    <       0.00004873 Ry

     iteration # 43     ecut=    70.00 Ry     beta= 0.40
     Davidson diagonalization with overlap
     ethr =  2.15E-09,  avg # of iterations =  1.0

     total cpu time spent up to now is     5269.3 secs

     total energy              =  -38985.03709712 Ry
     Harris-Foulkes estimate   =  -38985.03709988 Ry
     estimated scf accuracy    <       0.00003549 Ry

     iteration # 44     ecut=    70.00 Ry     beta= 0.40
     Davidson diagonalization with overlap
     ethr =  2.15E-09,  avg # of iterations =  1.0

     total cpu time spent up to now is     5371.1 secs

     total energy              =  -38985.03709811 Ry
     Harris-Foulkes estimate   =  -38985.03709927 Ry
     estimated scf accuracy    <       0.00001379 Ry

     iteration # 45     ecut=    70.00 Ry     beta= 0.40
     Davidson diagonalization with overlap
     ethr =  9.04E-10,  avg # of iterations =  1.0

     total cpu time spent up to now is     5472.7 secs

     total energy              =  -38985.03709801 Ry
     Harris-Foulkes estimate   =  -38985.03709944 Ry
     estimated scf accuracy    <       0.00001765 Ry

     iteration # 46     ecut=    70.00 Ry     beta= 0.40
     Davidson diagonalization with overlap
     ethr =  9.04E-10,  avg # of iterations =  1.0

     total cpu time spent up to now is     5574.8 secs

     total energy              =  -38985.03709804 Ry
     Harris-Foulkes estimate   =  -38985.03709958 Ry
     estimated scf accuracy    <       0.00002183 Ry

     iteration # 47     ecut=    70.00 Ry     beta= 0.40
     Davidson diagonalization with overlap
     ethr =  9.04E-10,  avg # of iterations =  1.0

     total cpu time spent up to now is     5676.4 secs

     total energy              =  -38985.03709844 Ry
     Harris-Foulkes estimate   =  -38985.03709930 Ry
     estimated scf accuracy    <       0.00001002 Ry

     iteration # 48     ecut=    70.00 Ry     beta= 0.40
     Davidson diagonalization with overlap
     ethr =  6.57E-10,  avg # of iterations =  1.0

     total cpu time spent up to now is     5777.8 secs

     total energy              =  -38985.03709843 Ry
     Harris-Foulkes estimate   =  -38985.03709941 Ry
     estimated scf accuracy    <       0.00001386 Ry

     iteration # 49     ecut=    70.00 Ry     beta= 0.40
     Davidson diagonalization with overlap
     ethr =  6.57E-10,  avg # of iterations =  1.0

     total cpu time spent up to now is     5879.8 secs

     total energy              =  -38985.03709872 Ry
     Harris-Foulkes estimate   =  -38985.03709911 Ry
     estimated scf accuracy    <       0.00000415 Ry

     iteration # 50     ecut=    70.00 Ry     beta= 0.40
     Davidson diagonalization with overlap
     ethr =  2.72E-10,  avg # of iterations =  1.0

     total cpu time spent up to now is     5981.2 secs

     total energy              =  -38985.03709878 Ry
     Harris-Foulkes estimate   =  -38985.03709915 Ry
     estimated scf accuracy    <       0.00000507 Ry

     iteration # 51     ecut=    70.00 Ry     beta= 0.40
     Davidson diagonalization with overlap
     ethr =  2.72E-10,  avg # of iterations =  1.0

     total cpu time spent up to now is     6082.7 secs

     total energy              =  -38985.03709891 Ry
     Harris-Foulkes estimate   =  -38985.03709909 Ry
     estimated scf accuracy    <       0.00000205 Ry

     iteration # 52     ecut=    70.00 Ry     beta= 0.40
     Davidson diagonalization with overlap
     ethr =  1.35E-10,  avg # of iterations =  1.0

     total cpu time spent up to now is     6184.2 secs

     total energy              =  -38985.03709894 Ry
     Harris-Foulkes estimate   =  -38985.03709908 Ry
     estimated scf accuracy    <       0.00000155 Ry

     iteration # 53     ecut=    70.00 Ry     beta= 0.40
     Davidson diagonalization with overlap
     ethr =  1.02E-10,  avg # of iterations =  1.0

     total cpu time spent up to now is     6285.7 secs

     total energy              =  -38985.03709894 Ry
     Harris-Foulkes estimate   =  -38985.03709909 Ry
     estimated scf accuracy    <       0.00000210 Ry

     iteration # 54     ecut=    70.00 Ry     beta= 0.40
     Davidson diagonalization with overlap
     ethr =  1.02E-10,  avg # of iterations =  1.0

     total cpu time spent up to now is     6387.5 secs

     total energy              =  -38985.03709899 Ry
     Harris-Foulkes estimate   =  -38985.03709907 Ry
     estimated scf accuracy    <       0.00000113 Ry

     iteration # 55     ecut=    70.00 Ry     beta= 0.40
     Davidson diagonalization with overlap
     ethr =  7.38E-11,  avg # of iterations =  1.0

     total cpu time spent up to now is     6489.1 secs

     End of self-consistent calculation

          k = 0.2500 0.1250 0.2500 (116137 PWs)   bands (ev):

   -99.8075 -99.6694 -99.3669 -99.2835 -99.2595 -99.2041 -99.1657 -99.0611
   -99.0208 -98.9936 -98.9816 -98.9157 -98.8591 -98.8066 -98.7750 -98.7723
   -98.7605 -98.7520 -98.7333 -98.7262 -98.6971 -98.6732 -98.6573 -98.6209
   -98.5962 -98.5948 -98.5794 -98.5655 -98.5592 -98.4780 -98.4624 -98.4623
   -98.4530 -98.4282 -98.4122 -98.3924 -98.3685 -98.3458 -98.2822 -98.2688
   -98.2495 -98.2281 -98.2115 -98.2100 -98.1886 -98.1708 -98.0931 -98.0759
   -98.0382 -57.7196 -57.5623 -57.1599 -57.0726 -57.0007 -56.9420 -56.9408
   -56.9232 -56.8553 -56.7703 -56.7278 -56.6666 -56.6210 -56.5838 -56.5681
   -56.5661 -56.5528 -56.5220 -56.4730 -56.4696 -56.4623 -56.4293 -56.4237
   -56.4080 -56.4031 -56.3969 -56.3571 -56.3494 -56.3243 -56.3236 -56.3061
   -56.2994 -56.2917 -56.2864 -56.2829 -56.2750 -56.2714 -56.2686 -56.2618
   -56.2580 -56.2378 -56.2274 -56.2188 -56.1970 -56.1931 -56.1682 -56.1503
   -56.1368 -56.1362 -56.1335 -56.1229 -56.1161 -56.1113 -56.1044 -56.1017
   -56.0920 -56.0784 -56.0590 -56.0515 -56.0464 -56.0415 -56.0411 -55.9932
   -55.9758 -55.9689 -55.9658 -55.9628 -55.9626 -55.9597 -55.9586 -55.9557
   -55.9447 -55.9278 -55.9258 -55.9238 -55.9219 -55.9117 -55.9083 -55.9037
   -55.8986 -55.8945 -55.8927 -55.8902 -55.8878 -55.8875 -55.8856 -55.8722
   -55.8680 -55.8617 -55.8593 -55.8490 -55.8290 -55.8075 -55.7961 -55.7882
   -55.7876 -55.7822 -55.7718 -55.7605 -55.7492 -55.7441 -55.7373 -55.7257
   -55.7253 -55.7143 -55.7137 -55.7135 -55.7124 -55.7084 -55.7038 -55.6783
   -55.6760 -55.6619 -55.6601 -55.6467 -55.6425 -55.6395 -55.6343 -55.6298
   -55.6221 -55.6171 -55.6002 -55.5969 -55.5877 -55.5783 -55.5445 -55.5400
   -55.5374 -55.5262 -55.5210 -55.5138 -55.5049 -55.4989 -55.4831 -55.4796
   -55.4703 -55.4511 -55.4473 -55.4412 -55.4325 -55.4080 -55.3878 -55.3594
   -55.3581 -55.3517 -55.3227 -55.3144 -34.3620 -34.2876 -34.2140 -34.1923
   -34.1659 -34.1448 -34.1269 -34.1106 -34.1093 -34.0953 -34.0904 -34.0737
   -34.0497 -34.0474 -34.0299 -34.0283 -34.0017 -33.9931 -33.9870 -33.9622
   -33.9584 -33.9524 -33.9462 -33.9321 -33.9130 -33.9062 -33.8994 -33.8938
   -33.8735 -33.8577 -33.8404 -33.8276 -33.8210 -33.7891 -33.7854 -33.7543
   -33.7334 -33.7209 -33.7174 -33.6972 -33.6824 -33.6762 -33.5924 -33.5634
   -33.5190 -33.3908 -33.3643 -33.3562 -33.1365 -13.6731 -13.3074 -12.9389
   -12.8303 -12.8224 -12.8181 -12.8078 -12.7510 -12.7445 -12.6739 -12.6585
   -12.6372 -12.6255 -12.6221 -12.5933 -12.5610 -12.5238 -12.5129 -12.5038
   -12.4890 -12.4806 -12.4767 -12.4732 -12.4716 -12.4533 -12.4467 -12.4275
   -12.4193 -12.4108 -12.3972 -12.3927 -12.3801 -12.3743 -12.3514 -12.3469
   -12.3321 -12.3264 -12.3207 -12.3121 -12.3026 -12.2988 -12.2924 -12.2906
   -12.2810 -12.2753 -12.2648 -12.2568 -12.2537 -12.2439 -12.2389 -12.2163
   -12.2084 -12.2050 -12.1914 -12.1842 -12.1750 -12.1708 -12.1623 -12.1566
   -12.1451 -12.1408 -12.1367 -12.1328 -12.1275 -12.1203 -12.1158 -12.1104
   -12.1039 -12.1000 -12.0948 -12.0841 -12.0639 -12.0607 -12.0455 -12.0437
   -12.0403 -12.0301 -12.0234 -12.0126 -12.0047 -11.9897 -11.9818 -11.9761
   -11.9586 -11.9383 -11.9316 -11.9212 -11.9141 -11.9085 -11.9040 -11.8986
   -11.8921 -11.8848 -11.8728 -11.8647 -11.8581 -11.8553 -11.8470 -11.8455
   -11.8408 -11.8326 -11.8277 -11.8140 -11.8045 -11.7931 -11.7894 -11.7641
   -11.7608 -11.7576 -11.7478 -11.7459 -11.7352 -11.7231 -11.7071 -11.6956
   -11.6869 -11.6726 -11.6611 -11.6573 -11.6245 -11.6106 -11.5631 -11.5506
   -11.5279 -11.5118 -11.5033 -11.4895 -11.4657 -11.4429 -11.4342 -11.4326
   -11.4269 -11.4045 -11.3777 -11.3656 -11.3055 -11.3017 -11.2940 -11.2458
   -11.2432 -11.1454 -11.1157 -11.0611 -10.9779 -10.6618 -10.5886 -10.2102
     7.2217   7.5099   7.7516   8.2088   8.3136   8.5080   8.5742   8.6941
     8.7892   8.8976   9.0293   9.1024   9.1230   9.1570   9.1900   9.2396
     9.2593   9.2960   9.3128   9.3485   9.3576   9.3729   9.4085   9.4389
     9.5080   9.5241   9.5401   9.5630   9.6079   9.6189   9.6694   9.6734
     9.7014   9.7232   9.7533   9.7816   9.7904   9.8261   9.8506   9.8635
     9.8775   9.9065   9.9073   9.9286   9.9323   9.9633   9.9913  10.0059
    10.0193  10.0436  10.0510  10.0729  10.0851  10.1014  10.1154  10.1295
    10.1381  10.1549  10.1662  10.1873  10.1975  10.2037  10.2136  10.2213
    10.2423  10.2499  10.2631  10.2713  10.2820  10.2894  10.3009  10.3030
    10.3175  10.3286  10.3415  10.3442  10.3486  10.3657  10.3730  10.3837
    10.3935  10.4046  10.4129  10.4194  10.4353  10.4393  10.4538  10.4634
    10.4728  10.4844  10.4903  10.4973  10.5093  10.5132  10.5245  10.5304
    10.5445  10.5484  10.5638  10.5724  10.5811  10.5882  10.5977  10.6067
    10.6121  10.6181  10.6289  10.6392  10.6473  10.6539  10.6658  10.6756
    10.6787  10.6881  10.6970  10.7004  10.7103  10.7180  10.7226  10.7327
    10.7344  10.7448  10.7523  10.7587  10.7666  10.7782  10.7893  10.7944
    10.8000  10.8096  10.8174  10.8266  10.8284  10.8393  10.8493  10.8553
    10.8659  10.8714  10.8783  10.8835  10.8877  10.8962  10.9030  10.9152
    10.9226  10.9292  10.9390  10.9469  10.9556  10.9684  10.9767  10.9797
    10.9833  10.9949  11.0049  11.0181  11.0248  11.0344  11.0367  11.0474
    11.0544  11.0683  11.0741  11.0818  11.0883  11.1007  11.1116  11.1176
    11.1267  11.1354  11.1398  11.1538  11.1624  11.1755  11.1789  11.1843
    11.1901  11.2021  11.2077  11.2198  11.2223  11.2362  11.2487  11.2572
    11.2668  11.2688  11.2790  11.2956  11.3020  11.3195  11.3248  11.3291
    11.3431  11.3500  11.3576  11.3674  11.3729  11.3807  11.4029  11.4117
    11.4200  11.4297  11.4383  11.4431  11.4569  11.4667  11.4787  11.4896
    11.4931  11.5010  11.5188  11.5262  11.5341  11.5436  11.5519  11.5617
    11.5711  11.5896  11.5940  11.6032  11.6142  11.6303  11.6471  11.6619
    11.6671  11.6848  11.6939  11.7083  11.7121  11.7237  11.7388  11.7438
    11.7613  11.7703  11.7828  11.7898  11.8051  11.8175  11.8315  11.8408
    11.8490  11.8625  11.8753  11.8841  11.8999  11.9098  11.9128  11.9225
    11.9419  11.9529  11.9652  11.9759  11.9950  12.0073  12.0161  12.0339
    12.0473  12.0576  12.0799  12.0925  12.1053  12.1174  12.1337  12.1493
    12.1664  12.1718  12.1862  12.2114  12.2350  12.2636  12.2754  12.3169
    12.3241  12.3362  12.3591  12.4083  12.4130  12.4353  12.4634  12.4955
    12.5149  12.5417  12.5685  12.5744  12.6079  12.6218  12.6517  12.6905
    12.7144  12.7376  12.7576  12.7851  12.8153  12.8500  12.8804  12.8989
    12.9208  12.9476  12.9735  13.0112  13.0513  13.0895  13.0965  13.1546
    13.1781  13.2056  13.2292  13.2569  13.2879  13.2965  13.3459  13.3715
    13.3878  13.4213  13.4367  13.4604  13.5056  13.5267  13.5329  13.5642
    13.6022  13.6169  13.6298  13.6455  13.6707  13.6975  13.7312  13.7714
    13.7888  13.8172  13.8430  13.8623  13.8823  13.9289  13.9475  13.9757
    13.9905  14.0094  14.0436  14.0938  14.1167  14.1268  14.1479  14.1866
    14.1998  14.2386  14.2628  14.2728  14.2903  14.3526  14.3591  14.3808
    14.3921  14.4222  14.4447  14.4569  14.5071  14.5094  14.5252  14.5528
    14.5824  14.6087  14.6410  14.6493  14.6789  14.6982  14.7212  14.7469
    14.7729  14.7931  14.8122  14.8284  14.8552  14.8703  14.8988  14.9196
    14.9421  14.9566  14.9734  15.0044  15.0299  15.0374  15.0615  15.0840
    15.0858  15.1263  15.1571  15.1642  15.2089  15.2309  15.2508  15.2855
    15.2987  15.3224  15.3438  15.3999  15.4209  15.4291  15.4638  15.4837
    15.5103  15.5204  15.5484  15.5738  15.5914  15.6226  15.6497  15.6690
    15.7051  15.7320  15.7667  15.7954  15.8118  15.8397  15.8689  15.8844
    15.9086  15.9428  15.9702  15.9999  16.0412  16.0472  16.0756  16.1296
    16.1516  16.1710  16.1800  16.2352  16.2545  16.2897  16.3020  16.3212
    16.3698  16.3784  16.4136  16.4209  16.4446  16.4727  16.5095  16.5318
    16.5545  16.6179  16.6272  16.6436  16.6612  16.6853  16.7430  16.7514
    16.7908  16.8059  16.8430  16.8645  16.8798  16.9119  16.9380  16.9739
    16.9909  17.0094  17.0506  17.0681  17.0950  17.1195  17.1328  17.1643
    17.2153  17.2392  17.2705  17.2949  17.3210  17.3404  17.3460  17.3939
    17.4171  17.4429  17.4648  17.4784  17.5216  17.5472  17.5564  17.5785
    17.6093  17.6322  17.6422  17.6877  17.7130  17.7340  17.7450  17.7909
    17.7937  17.8214  17.8393  17.8882  17.9156  17.9300  17.9568  17.9793
    17.9946  18.0113  18.0423  18.0646  18.0973  18.1168  18.1371  18.1986
    18.2117  18.2332  18.2639  18.2840  18.3062  18.3459  18.3660  18.3957
    18.4316  18.4569  18.4686  18.5005  18.5219  18.5543  18.5751  18.6039
    18.6314  18.6727  18.6839  18.7019  18.7567  18.7778  18.8111  18.8272
    18.8551  18.8766  18.9315  18.9842  18.9902  18.9966  19.0475  19.0832
    19.1231  19.1726  19.2091  19.2414  19.2535  19.2765  19.3083  19.3406
    19.4118  19.4253  19.4591  19.4830  19.5217  19.5674  19.5739  19.6193
    19.6693  19.7205  19.7603  19.7744  19.7997  19.8406  19.8751  19.9289
    19.9472  20.0248  20.0796  20.1197  20.1668  20.2194  20.2493  20.2947
    20.3498  20.3772  20.4179  20.4851  20.5214  20.5408  20.6231  20.6463
    20.6822  20.7297  20.7999  20.8161  20.8848  20.9039  20.9422  20.9768
    21.0254  21.0865  21.1594  21.1796  21.2214  21.2938  21.3608  21.3801
    21.4410  21.5341  21.5502  21.6062  21.6620  21.6949  21.7252  21.7649
    21.7941  21.8731  21.9179  21.9543  22.0124  22.0370  22.0961  22.1861
    22.2199  22.2481  22.2799  22.3081  22.3798  22.4132  22.4324  22.4960
    22.5457  22.5882  22.6279  22.6710  22.7004  22.7203  22.8213  22.8447
    22.9015  22.9567  22.9830  23.0215  23.0967  23.1322  23.1917  23.2360
    23.2670  23.3017  23.3496  23.3657  23.4303  23.4663  23.5268  23.5706
    23.6027  23.6259  23.6669  23.6920  23.7495  23.7803  23.8380  23.8668
    23.9196  23.9426  23.9647  24.0098  24.0352  24.0747  24.1378  24.1908
    24.2178  24.2464  24.2959  24.3725  24.4259  24.4343  24.4859  24.5419
    24.5622  24.6402  24.6743  24.7061  24.7537  24.8039  24.8487  24.8761
    24.8946  24.9311  24.9657  25.0416  25.0686  25.1335  25.1749  25.1984
    25.2387  25.2740  25.3418  25.3555  25.4064  25.4272  25.4653  25.5037
    25.5441  25.5610  25.5977  25.6501  25.6998  25.7093

     occupation numbers 
     1.0000   1.0000   1.0000   1.0000   1.0000   1.0000   1.0000   1.0000
     1.0000   1.0000   1.0000   1.0000   1.0000   1.0000   1.0000   1.0000
     1.0000   1.0000   1.0000   1.0000   1.0000   1.0000   1.0000   1.0000
     1.0000   1.0000   1.0000   1.0000   1.0000   1.0000   1.0000   1.0000
     1.0000   1.0000   1.0000   1.0000   1.0000   1.0000   1.0000   1.0000
     1.0000   1.0000   1.0000   1.0000   1.0000   1.0000   1.0000   1.0000
     1.0000   1.0000   1.0000   1.0000   1.0000   1.0000   1.0000   1.0000
     1.0000   1.0000   1.0000   1.0000   1.0000   1.0000   1.0000   1.0000
     1.0000   1.0000   1.0000   1.0000   1.0000   1.0000   1.0000   1.0000
     1.0000   1.0000   1.0000   1.0000   1.0000   1.0000   1.0000   1.0000
     1.0000   1.0000   1.0000   1.0000   1.0000   1.0000   1.0000   1.0000
     1.0000   1.0000   1.0000   1.0000   1.0000   1.0000   1.0000   1.0000
     1.0000   1.0000   1.0000   1.0000   1.0000   1.0000   1.0000   1.0000
     1.0000   1.0000   1.0000   1.0000   1.0000   1.0000   1.0000   1.0000
     1.0000   1.0000   1.0000   1.0000   1.0000   1.0000   1.0000   1.0000
     1.0000   1.0000   1.0000   1.0000   1.0000   1.0000   1.0000   1.0000
     1.0000   1.0000   1.0000   1.0000   1.0000   1.0000   1.0000   1.0000
     1.0000   1.0000   1.0000   1.0000   1.0000   1.0000   1.0000   1.0000
     1.0000   1.0000   1.0000   1.0000   1.0000   1.0000   1.0000   1.0000
     1.0000   1.0000   1.0000   1.0000   1.0000   1.0000   1.0000   1.0000
     1.0000   1.0000   1.0000   1.0000   1.0000   1.0000   1.0000   1.0000
     1.0000   1.0000   1.0000   1.0000   1.0000   1.0000   1.0000   1.0000
     1.0000   1.0000   1.0000   1.0000   1.0000   1.0000   1.0000   1.0000
     1.0000   1.0000   1.0000   1.0000   1.0000   1.0000   1.0000   1.0000
     1.0000   1.0000   1.0000   1.0000   1.0000   1.0000   1.0000   1.0000
     1.0000   1.0000   1.0000   1.0000   1.0000   1.0000   1.0000   1.0000
     1.0000   1.0000   1.0000   1.0000   1.0000   1.0000   1.0000   1.0000
     1.0000   1.0000   1.0000   1.0000   1.0000   1.0000   1.0000   1.0000
     1.0000   1.0000   1.0000   1.0000   1.0000   1.0000   1.0000   1.0000
     1.0000   1.0000   1.0000   1.0000   1.0000   1.0000   1.0000   1.0000
     1.0000   1.0000   1.0000   1.0000   1.0000   1.0000   1.0000   1.0000
     1.0000   1.0000   1.0000   1.0000   1.0000   1.0000   1.0000   1.0000
     1.0000   1.0000   1.0000   1.0000   1.0000   1.0000   1.0000   1.0000
     1.0000   1.0000   1.0000   1.0000   1.0000   1.0000   1.0000   1.0000
     1.0000   1.0000   1.0000   1.0000   1.0000   1.0000   1.0000   1.0000
     1.0000   1.0000   1.0000   1.0000   1.0000   1.0000   1.0000   1.0000
     1.0000   1.0000   1.0000   1.0000   1.0000   1.0000   1.0000   1.0000
     1.0000   1.0000   1.0000   1.0000   1.0000   1.0000   1.0000   1.0000
     1.0000   1.0000   1.0000   1.0000   1.0000   1.0000   1.0000   1.0000
     1.0000   1.0000   1.0000   1.0000   1.0000   1.0000   1.0000   1.0000
     1.0000   1.0000   1.0000   1.0000   1.0000   1.0000   1.0000   1.0000
     1.0000   1.0000   1.0000   1.0000   1.0000   1.0000   1.0000   1.0000
     1.0000   1.0000   1.0000   1.0000   1.0000   1.0000   1.0000   1.0000
     1.0000   1.0000   1.0000   1.0000   1.0000   1.0000   1.0000   1.0000
     1.0000   1.0000   1.0000   1.0000   1.0000   1.0000   1.0000   1.0000
     1.0000   1.0000   1.0000   1.0000   1.0000   1.0000   1.0000   1.0000
     1.0000   1.0000   1.0000   1.0000   1.0000   1.0000   1.0000   1.0000
     1.0000   1.0000   1.0000   1.0000   1.0000   1.0000   1.0000   1.0000
     1.0000   1.0000   1.0000   1.0000   1.0000   1.0000   1.0000   1.0000
     1.0000   1.0000   1.0000   1.0000   1.0000   1.0000   1.0000   1.0000
     1.0000   1.0000   1.0000   1.0000   1.0000   1.0000   1.0000   1.0000
     1.0000   1.0000   1.0000   1.0000   1.0000   1.0000   1.0000   1.0000
     1.0000   1.0000   1.0000   1.0000   1.0000   1.0000   1.0000   1.0000
     1.0000   1.0000   1.0000   1.0000   1.0000   1.0000   1.0000   1.0000
     1.0000   1.0000   1.0000   1.0000   1.0000   1.0000   1.0000   1.0000
     1.0000   1.0000   1.0000   1.0000   1.0000   1.0000   1.0000   1.0000
     1.0000   1.0000   1.0000   1.0000   1.0000   1.0000   1.0000   1.0000
     1.0000   1.0000   1.0000   1.0000   1.0000   1.0000   1.0000   1.0000
     1.0000   1.0000   1.0000   1.0000   1.0000   1.0000   1.0000   1.0000
     1.0000   1.0000   1.0000   1.0000   1.0000   1.0000   1.0000   1.0000
     1.0000   1.0000   1.0000   1.0000   1.0000   1.0000   1.0000   1.0000
     1.0000   1.0000   1.0000   1.0000   1.0000   1.0000   1.0000   1.0000
     1.0000   1.0000   1.0000   1.0000   1.0000   1.0000   1.0000   1.0000
     1.0000   1.0000   1.0000   1.0000   1.0000   1.0000   1.0000   1.0000
     1.0000   1.0000   1.0000   1.0000   1.0000   1.0000   1.0000   1.0000
     1.0000   1.0000   1.0000   1.0000   1.0000   1.0000   1.0000   1.0000
     1.0000   1.0000   1.0000   1.0000   1.0000   1.0000   1.0000   1.0000
     1.0000   1.0000   1.0000   1.0000   1.0000   1.0000   1.0000   1.0000
     1.0000   1.0000   1.0000   1.0000   1.0000   1.0000   1.0000   1.0000
     1.0000   1.0000   1.0000   1.0000   1.0000   1.0000   1.0000   1.0000
     1.0000   1.0000   1.0000   1.0000   1.0000   1.0000   1.0000   1.0000
     1.0000   1.0000   1.0000   1.0000   1.0000   1.0000   1.0000   1.0000
     1.0000   1.0000   1.0000   1.0000   1.0000   1.0000   1.0000   1.0000
     1.0000   1.0000   1.0000   1.0000   1.0000   1.0000   1.0000   1.0000
     1.0000   1.0000   1.0000   1.0000   1.0000   1.0000   1.0000   1.0000
     1.0000   1.0000   1.0000   1.0000   1.0000   1.0000   1.0000   1.0000
     1.0000   1.0000   1.0000   1.0000   1.0000   1.0000   1.0000   1.0000
     1.0000   1.0000   1.0000   1.0000   1.0000   1.0000   1.0000   1.0000
     1.0000   1.0000   1.0000   1.0000   1.0000   1.0000   1.0000   1.0000
     1.0000   1.0000   1.0000   1.0000   1.0000   1.0000   1.0000   1.0000
     1.0000   1.0000   1.0000   1.0000   1.0000   1.0000   1.0000   1.0000
     1.0000   1.0000   1.0000   1.0000   1.0000   1.0000   1.0000   1.0000
     1.0000   1.0000   1.0000   1.0000   1.0000   1.0000   1.0000   1.0000
     1.0000   1.0000   1.0000   1.0000   1.0000   1.0000   1.0000   1.0000
     1.0000   1.0000   1.0000   1.0000   1.0000   1.0000   1.0000   1.0000
     1.0000   1.0000   1.0000   1.0000   1.0000   1.0000   1.0000   1.0000
     1.0000   1.0000   1.0000   1.0000   1.0000   1.0000   1.0000   1.0000
     1.0000   1.0000   1.0000   1.0000   1.0000   1.0000   1.0000   1.0000
     1.0000   1.0000   1.0000   1.0000   1.0000   1.0000   1.0000   1.0000
     1.0000   1.0000   1.0000   1.0000   1.0000   1.0000   0.9999   0.9999
     0.9999   0.9999   0.9999   0.9998   0.9998   0.9997   0.9996   0.9995
     0.9994   0.9993   0.9991   0.9986   0.9982   0.9981   0.9976   0.9966
     0.9962   0.9946   0.9933   0.9926   0.9914   0.9848   0.9839   0.9804
     0.9783   0.9715   0.9652   0.9613   0.9399   0.9387   0.9299   0.9114
     0.8868   0.8602   0.8206   0.8090   0.7634   0.7300   0.6863   0.6334
     0.5764   0.5307   0.4869   0.4498   0.3899   0.3575   0.2999   0.2613
     0.2234   0.2012   0.1775   0.1396   0.1137   0.1070   0.0876   0.0724
     0.0713   0.0503   0.0384   0.0360   0.0242   0.0198   0.0166   0.0121
     0.0107   0.0087   0.0071   0.0043   0.0035   0.0033   0.0024   0.0020
     0.0016   0.0014   0.0011   0.0009   0.0007   0.0006   0.0004   0.0004
     0.0003   0.0002   0.0001   0.0001   0.0001   0.0001   0.0001   0.0000
     0.0000   0.0000   0.0000   0.0000   0.0000   0.0000   0.0000   0.0000
     0.0000   0.0000   0.0000   0.0000   0.0000   0.0000   0.0000   0.0000
     0.0000   0.0000   0.0000   0.0000   0.0000   0.0000   0.0000   0.0000
     0.0000   0.0000   0.0000   0.0000   0.0000   0.0000   0.0000   0.0000
     0.0000   0.0000   0.0000   0.0000   0.0000   0.0000   0.0000   0.0000
     0.0000   0.0000   0.0000   0.0000   0.0000   0.0000   0.0000   0.0000
     0.0000   0.0000   0.0000   0.0000   0.0000   0.0000   0.0000   0.0000
     0.0000   0.0000   0.0000   0.0000   0.0000   0.0000   0.0000   0.0000
     0.0000   0.0000   0.0000   0.0000   0.0000   0.0000   0.0000   0.0000
     0.0000   0.0000   0.0000   0.0000   0.0000   0.0000   0.0000   0.0000
     0.0000   0.0000   0.0000   0.0000   0.0000   0.0000   0.0000   0.0000
     0.0000   0.0000   0.0000   0.0000   0.0000   0.0000   0.0000   0.0000
     0.0000   0.0000   0.0000   0.0000   0.0000   0.0000   0.0000   0.0000
     0.0000   0.0000   0.0000   0.0000   0.0000   0.0000   0.0000   0.0000
     0.0000   0.0000   0.0000   0.0000   0.0000   0.0000   0.0000   0.0000
     0.0000   0.0000   0.0000   0.0000   0.0000   0.0000   0.0000   0.0000
     0.0000   0.0000   0.0000   0.0000   0.0000   0.0000   0.0000   0.0000
     0.0000   0.0000   0.0000   0.0000   0.0000   0.0000   0.0000   0.0000
     0.0000   0.0000   0.0000   0.0000   0.0000   0.0000   0.0000   0.0000
     0.0000   0.0000   0.0000   0.0000   0.0000   0.0000   0.0000   0.0000
     0.0000   0.0000   0.0000   0.0000   0.0000   0.0000   0.0000   0.0000
     0.0000   0.0000   0.0000   0.0000   0.0000   0.0000   0.0000   0.0000
     0.0000   0.0000   0.0000   0.0000   0.0000   0.0000   0.0000   0.0000
     0.0000   0.0000   0.0000   0.0000   0.0000   0.0000   0.0000   0.0000
     0.0000   0.0000   0.0000   0.0000   0.0000   0.0000   0.0000   0.0000
     0.0000   0.0000   0.0000   0.0000   0.0000   0.0000   0.0000   0.0000
     0.0000   0.0000   0.0000   0.0000   0.0000   0.0000   0.0000   0.0000
     0.0000   0.0000   0.0000   0.0000   0.0000   0.0000   0.0000   0.0000
     0.0000   0.0000   0.0000   0.0000   0.0000   0.0000   0.0000   0.0000
     0.0000   0.0000   0.0000   0.0000   0.0000   0.0000   0.0000   0.0000
     0.0000   0.0000   0.0000   0.0000   0.0000   0.0000   0.0000   0.0000
     0.0000   0.0000   0.0000   0.0000   0.0000   0.0000   0.0000   0.0000
     0.0000   0.0000   0.0000   0.0000   0.0000   0.0000   0.0000   0.0000
     0.0000   0.0000   0.0000   0.0000   0.0000   0.0000   0.0000   0.0000
     0.0000   0.0000   0.0000   0.0000   0.0000   0.0000

          k = 0.2500 0.3750-0.2500 (116150 PWs)   bands (ev):

   -99.8075 -99.6695 -99.3669 -99.2835 -99.2595 -99.2041 -99.1657 -99.0611
   -99.0208 -98.9936 -98.9816 -98.9157 -98.8591 -98.8066 -98.7750 -98.7723
   -98.7605 -98.7520 -98.7333 -98.7262 -98.6971 -98.6732 -98.6573 -98.6209
   -98.5962 -98.5948 -98.5794 -98.5655 -98.5592 -98.4780 -98.4624 -98.4623
   -98.4530 -98.4282 -98.4122 -98.3924 -98.3685 -98.3458 -98.2822 -98.2688
   -98.2495 -98.2281 -98.2115 -98.2100 -98.1886 -98.1708 -98.0931 -98.0759
   -98.0382 -57.7196 -57.5624 -57.1599 -57.0726 -57.0008 -56.9420 -56.9408
   -56.9232 -56.8553 -56.7703 -56.7278 -56.6666 -56.6210 -56.5838 -56.5681
   -56.5661 -56.5528 -56.5220 -56.4730 -56.4696 -56.4623 -56.4293 -56.4237
   -56.4080 -56.4031 -56.3969 -56.3571 -56.3494 -56.3243 -56.3236 -56.3062
   -56.2995 -56.2917 -56.2864 -56.2829 -56.2750 -56.2714 -56.2686 -56.2618
   -56.2580 -56.2378 -56.2274 -56.2188 -56.1970 -56.1931 -56.1682 -56.1503
   -56.1368 -56.1362 -56.1335 -56.1229 -56.1161 -56.1113 -56.1044 -56.1017
   -56.0920 -56.0784 -56.0590 -56.0515 -56.0464 -56.0415 -56.0410 -55.9933
   -55.9758 -55.9689 -55.9658 -55.9628 -55.9626 -55.9597 -55.9586 -55.9557
   -55.9447 -55.9278 -55.9258 -55.9238 -55.9219 -55.9117 -55.9083 -55.9037
   -55.8986 -55.8945 -55.8927 -55.8902 -55.8878 -55.8875 -55.8856 -55.8722
   -55.8680 -55.8617 -55.8594 -55.8490 -55.8290 -55.8075 -55.7961 -55.7882
   -55.7876 -55.7822 -55.7718 -55.7605 -55.7492 -55.7441 -55.7373 -55.7257
   -55.7253 -55.7143 -55.7137 -55.7135 -55.7124 -55.7084 -55.7038 -55.6783
   -55.6760 -55.6619 -55.6601 -55.6467 -55.6426 -55.6395 -55.6343 -55.6298
   -55.6221 -55.6171 -55.6002 -55.5969 -55.5877 -55.5782 -55.5445 -55.5400
   -55.5374 -55.5262 -55.5210 -55.5138 -55.5049 -55.4989 -55.4831 -55.4796
   -55.4703 -55.4511 -55.4473 -55.4412 -55.4325 -55.4080 -55.3878 -55.3594
   -55.3581 -55.3517 -55.3227 -55.3144 -34.3620 -34.2876 -34.2140 -34.1922
   -34.1659 -34.1447 -34.1268 -34.1107 -34.1093 -34.0953 -34.0904 -34.0736
   -34.0497 -34.0474 -34.0296 -34.0284 -34.0021 -33.9932 -33.9874 -33.9625
   -33.9583 -33.9532 -33.9465 -33.9293 -33.9128 -33.9077 -33.8979 -33.8940
   -33.8734 -33.8589 -33.8405 -33.8275 -33.8209 -33.7889 -33.7854 -33.7544
   -33.7342 -33.7210 -33.7164 -33.6972 -33.6827 -33.6761 -33.5924 -33.5634
   -33.5190 -33.3909 -33.3642 -33.3562 -33.1365 -13.6732 -13.3074 -12.9389
   -12.8283 -12.8207 -12.8154 -12.8115 -12.7509 -12.7445 -12.6703 -12.6617
   -12.6369 -12.6304 -12.6255 -12.5913 -12.5618 -12.5224 -12.5144 -12.4964
   -12.4906 -12.4854 -12.4816 -12.4741 -12.4641 -12.4550 -12.4478 -12.4211
   -12.4177 -12.4099 -12.4016 -12.3938 -12.3803 -12.3715 -12.3592 -12.3452
   -12.3292 -12.3259 -12.3200 -12.3062 -12.3005 -12.2984 -12.2918 -12.2868
   -12.2796 -12.2763 -12.2684 -12.2556 -12.2538 -12.2463 -12.2411 -12.2222
   -12.2127 -12.2042 -12.1931 -12.1834 -12.1760 -12.1686 -12.1661 -12.1599
   -12.1493 -12.1459 -12.1374 -12.1328 -12.1222 -12.1154 -12.1134 -12.1107
   -12.1048 -12.0965 -12.0916 -12.0836 -12.0721 -12.0604 -12.0472 -12.0377
   -12.0358 -12.0286 -12.0217 -12.0132 -12.0030 -11.9881 -11.9819 -11.9735
   -11.9623 -11.9412 -11.9291 -11.9216 -11.9166 -11.9108 -11.8991 -11.8972
   -11.8919 -11.8823 -11.8732 -11.8704 -11.8624 -11.8587 -11.8512 -11.8458
   -11.8377 -11.8284 -11.8186 -11.8161 -11.8096 -11.7962 -11.7898 -11.7699
   -11.7584 -11.7571 -11.7512 -11.7399 -11.7339 -11.7128 -11.7103 -11.7025
   -11.6846 -11.6718 -11.6654 -11.6561 -11.6252 -11.6112 -11.5484 -11.5432
   -11.5341 -11.5117 -11.5018 -11.4892 -11.4746 -11.4456 -11.4356 -11.4322
   -11.4293 -11.4043 -11.3788 -11.3649 -11.3066 -11.2996 -11.2940 -11.2458
   -11.2434 -11.1443 -11.1157 -11.0611 -10.9776 -10.6618 -10.5887 -10.2102
     7.2799   7.4942   7.7384   8.1251   8.3185   8.4139   8.4996   8.6943
     8.8804   8.9495   9.0409   9.0971   9.1420   9.1810   9.2058   9.2459
     9.2800   9.3088   9.3457   9.3608   9.3878   9.3927   9.4125   9.4453
     9.4733   9.5203   9.5521   9.5605   9.5839   9.6063   9.6497   9.6652
     9.7093   9.7283   9.7580   9.7852   9.7997   9.8257   9.8383   9.8709
     9.8752   9.8898   9.9051   9.9281   9.9558   9.9708   9.9860  10.0084
    10.0195  10.0403  10.0492  10.0709  10.0809  10.1025  10.1229  10.1282
    10.1391  10.1597  10.1700  10.1830  10.1929  10.2034  10.2196  10.2284
    10.2358  10.2452  10.2595  10.2714  10.2799  10.2844  10.3001  10.3084
    10.3189  10.3290  10.3425  10.3572  10.3602  10.3655  10.3810  10.3885
    10.3980  10.4018  10.4112  10.4219  10.4358  10.4428  10.4534  10.4563
    10.4678  10.4751  10.4871  10.4977  10.5022  10.5147  10.5223  10.5299
    10.5366  10.5503  10.5617  10.5728  10.5796  10.5838  10.5893  10.5976
    10.6077  10.6257  10.6312  10.6404  10.6530  10.6582  10.6659  10.6722
    10.6782  10.6879  10.6926  10.7050  10.7153  10.7241  10.7282  10.7351
    10.7438  10.7480  10.7621  10.7701  10.7815  10.7840  10.7920  10.7978
    10.8009  10.8083  10.8160  10.8221  10.8285  10.8410  10.8459  10.8506
    10.8620  10.8667  10.8719  10.8772  10.8867  10.8968  10.9052  10.9131
    10.9171  10.9264  10.9359  10.9437  10.9575  10.9613  10.9709  10.9792
    10.9879  10.9988  11.0085  11.0125  11.0244  11.0318  11.0397  11.0462
    11.0558  11.0680  11.0738  11.0843  11.0856  11.0925  11.1022  11.1096
    11.1202  11.1300  11.1402  11.1426  11.1602  11.1666  11.1750  11.1879
    11.1956  11.1983  11.2199  11.2268  11.2351  11.2407  11.2463  11.2549
    11.2660  11.2708  11.2822  11.2921  11.2981  11.3037  11.3120  11.3238
    11.3352  11.3418  11.3527  11.3649  11.3780  11.3893  11.4009  11.4061
    11.4225  11.4272  11.4357  11.4490  11.4576  11.4656  11.4720  11.4847
    11.4912  11.4986  11.5136  11.5214  11.5334  11.5412  11.5477  11.5603
    11.5752  11.5844  11.5951  11.6122  11.6266  11.6284  11.6375  11.6470
    11.6635  11.6755  11.6929  11.7035  11.7086  11.7182  11.7329  11.7440
    11.7632  11.7729  11.7793  11.7948  11.8043  11.8207  11.8269  11.8338
    11.8469  11.8595  11.8759  11.8863  11.8989  11.9133  11.9192  11.9269
    11.9437  11.9536  11.9667  11.9689  11.9861  12.0048  12.0135  12.0268
    12.0411  12.0581  12.0733  12.0884  12.0981  12.1194  12.1288  12.1424
    12.1509  12.1750  12.2085  12.2214  12.2411  12.2530  12.2896  12.3006
    12.3314  12.3629  12.3849  12.3991  12.4202  12.4404  12.4643  12.4763
    12.5017  12.5372  12.5496  12.5931  12.6074  12.6255  12.6484  12.6870
    12.7040  12.7265  12.7658  12.8011  12.8214  12.8526  12.8678  12.9218
    12.9366  12.9896  13.0059  13.0132  13.0332  13.0787  13.1028  13.1530
    13.1759  13.1930  13.2386  13.2776  13.2880  13.2988  13.3356  13.3623
    13.3778  13.4045  13.4392  13.4632  13.4949  13.5208  13.5382  13.5815
    13.6132  13.6311  13.6522  13.6863  13.7041  13.7121  13.7239  13.7683
    13.7847  13.8124  13.8240  13.8472  13.8853  13.9125  13.9460  13.9560
    13.9936  14.0143  14.0427  14.0670  14.0935  14.1358  14.1590  14.1798
    14.1968  14.2223  14.2573  14.2774  14.2908  14.3176  14.3405  14.3642
    14.3901  14.4067  14.4432  14.4761  14.4863  14.5008  14.5358  14.5548
    14.5786  14.6118  14.6269  14.6575  14.6748  14.6923  14.7123  14.7356
    14.7677  14.7792  14.8059  14.8222  14.8462  14.8783  14.9001  14.9149
    14.9465  14.9618  14.9863  14.9945  15.0158  15.0422  15.0695  15.1012
    15.1040  15.1349  15.1410  15.1701  15.2035  15.2305  15.2447  15.2761
    15.3121  15.3358  15.3528  15.3808  15.4052  15.4215  15.4459  15.4758
    15.5041  15.5299  15.5647  15.6017  15.6196  15.6343  15.6797  15.6856
    15.7403  15.7503  15.7724  15.7974  15.8239  15.8473  15.8738  15.9004
    15.9413  15.9587  15.9810  16.0002  16.0294  16.0680  16.0976  16.1249
    16.1394  16.1713  16.1914  16.2180  16.2451  16.2620  16.2811  16.3290
    16.3406  16.3851  16.4005  16.4376  16.4585  16.4942  16.5105  16.5385
    16.5737  16.5921  16.6199  16.6503  16.6714  16.7100  16.7179  16.7590
    16.7997  16.8042  16.8267  16.8494  16.8749  16.9092  16.9354  16.9710
    16.9957  17.0109  17.0446  17.0677  17.0871  17.1294  17.1668  17.1897
    17.2043  17.2275  17.2557  17.2915  17.3013  17.3238  17.3573  17.3970
    17.4137  17.4557  17.4632  17.4772  17.5186  17.5478  17.5523  17.5977
    17.6098  17.6180  17.6636  17.6838  17.7129  17.7414  17.7756  17.7928
    17.8058  17.8319  17.8529  17.8732  17.9059  17.9151  17.9358  17.9768
    18.0082  18.0225  18.0451  18.0804  18.1105  18.1305  18.1467  18.1801
    18.1888  18.2213  18.2594  18.2804  18.2916  18.3293  18.3737  18.3772
    18.4263  18.4620  18.4745  18.4942  18.5262  18.5538  18.5687  18.5890
    18.6128  18.6563  18.6930  18.7126  18.7481  18.7717  18.8079  18.8494
    18.8669  18.8985  18.9201  18.9471  18.9684  18.9859  19.0501  19.0791
    19.1075  19.1286  19.1737  19.1933  19.2189  19.2549  19.3131  19.3595
    19.3881  19.4567  19.4754  19.4973  19.5215  19.5629  19.6083  19.6372
    19.6791  19.7154  19.7358  19.8065  19.8314  19.8710  19.9381  19.9717
    20.0094  20.0611  20.0782  20.1036  20.1303  20.1580  20.2057  20.2412
    20.2825  20.3462  20.4261  20.4451  20.5017  20.5597  20.5957  20.6481
    20.7216  20.7278  20.7775  20.8067  20.8756  20.8848  20.9616  21.0383
    21.0542  21.1036  21.1219  21.1836  21.2305  21.3100  21.3376  21.3790
    21.4417  21.4723  21.5539  21.5752  21.6091  21.6828  21.7321  21.7574
    21.8159  21.8782  21.9137  21.9538  22.0026  22.0517  22.1063  22.1450
    22.2239  22.2656  22.2868  22.3256  22.3456  22.4142  22.4699  22.4848
    22.5198  22.5626  22.6527  22.6857  22.7214  22.7878  22.8357  22.8704
    22.9366  22.9557  22.9921  23.0471  23.0886  23.1244  23.1622  23.2236
    23.2472  23.2986  23.3553  23.4036  23.4367  23.4622  23.5233  23.5617
    23.6190  23.6589  23.7138  23.7285  23.7725  23.8026  23.8361  23.8827
    23.9100  23.9778  24.0177  24.0436  24.0883  24.1428  24.1741  24.2020
    24.2291  24.3247  24.3569  24.3894  24.4533  24.4708  24.5116  24.5437
    24.5877  24.6188  24.6421  24.6902  24.7597  24.7850  24.7981  24.8684
    24.8982  24.9284  24.9533  25.0185  25.0477  25.1144  25.1548  25.1849
    25.2084  25.2251  25.2673  25.2873  25.3761  25.4201  25.4602  25.5003
    25.5170  25.5681  25.5853  25.6201  25.6795  25.6977

     occupation numbers 
     1.0000   1.0000   1.0000   1.0000   1.0000   1.0000   1.0000   1.0000
     1.0000   1.0000   1.0000   1.0000   1.0000   1.0000   1.0000   1.0000
     1.0000   1.0000   1.0000   1.0000   1.0000   1.0000   1.0000   1.0000
     1.0000   1.0000   1.0000   1.0000   1.0000   1.0000   1.0000   1.0000
     1.0000   1.0000   1.0000   1.0000   1.0000   1.0000   1.0000   1.0000
     1.0000   1.0000   1.0000   1.0000   1.0000   1.0000   1.0000   1.0000
     1.0000   1.0000   1.0000   1.0000   1.0000   1.0000   1.0000   1.0000
     1.0000   1.0000   1.0000   1.0000   1.0000   1.0000   1.0000   1.0000
     1.0000   1.0000   1.0000   1.0000   1.0000   1.0000   1.0000   1.0000
     1.0000   1.0000   1.0000   1.0000   1.0000   1.0000   1.0000   1.0000
     1.0000   1.0000   1.0000   1.0000   1.0000   1.0000   1.0000   1.0000
     1.0000   1.0000   1.0000   1.0000   1.0000   1.0000   1.0000   1.0000
     1.0000   1.0000   1.0000   1.0000   1.0000   1.0000   1.0000   1.0000
     1.0000   1.0000   1.0000   1.0000   1.0000   1.0000   1.0000   1.0000
     1.0000   1.0000   1.0000   1.0000   1.0000   1.0000   1.0000   1.0000
     1.0000   1.0000   1.0000   1.0000   1.0000   1.0000   1.0000   1.0000
     1.0000   1.0000   1.0000   1.0000   1.0000   1.0000   1.0000   1.0000
     1.0000   1.0000   1.0000   1.0000   1.0000   1.0000   1.0000   1.0000
     1.0000   1.0000   1.0000   1.0000   1.0000   1.0000   1.0000   1.0000
     1.0000   1.0000   1.0000   1.0000   1.0000   1.0000   1.0000   1.0000
     1.0000   1.0000   1.0000   1.0000   1.0000   1.0000   1.0000   1.0000
     1.0000   1.0000   1.0000   1.0000   1.0000   1.0000   1.0000   1.0000
     1.0000   1.0000   1.0000   1.0000   1.0000   1.0000   1.0000   1.0000
     1.0000   1.0000   1.0000   1.0000   1.0000   1.0000   1.0000   1.0000
     1.0000   1.0000   1.0000   1.0000   1.0000   1.0000   1.0000   1.0000
     1.0000   1.0000   1.0000   1.0000   1.0000   1.0000   1.0000   1.0000
     1.0000   1.0000   1.0000   1.0000   1.0000   1.0000   1.0000   1.0000
     1.0000   1.0000   1.0000   1.0000   1.0000   1.0000   1.0000   1.0000
     1.0000   1.0000   1.0000   1.0000   1.0000   1.0000   1.0000   1.0000
     1.0000   1.0000   1.0000   1.0000   1.0000   1.0000   1.0000   1.0000
     1.0000   1.0000   1.0000   1.0000   1.0000   1.0000   1.0000   1.0000
     1.0000   1.0000   1.0000   1.0000   1.0000   1.0000   1.0000   1.0000
     1.0000   1.0000   1.0000   1.0000   1.0000   1.0000   1.0000   1.0000
     1.0000   1.0000   1.0000   1.0000   1.0000   1.0000   1.0000   1.0000
     1.0000   1.0000   1.0000   1.0000   1.0000   1.0000   1.0000   1.0000
     1.0000   1.0000   1.0000   1.0000   1.0000   1.0000   1.0000   1.0000
     1.0000   1.0000   1.0000   1.0000   1.0000   1.0000   1.0000   1.0000
     1.0000   1.0000   1.0000   1.0000   1.0000   1.0000   1.0000   1.0000
     1.0000   1.0000   1.0000   1.0000   1.0000   1.0000   1.0000   1.0000
     1.0000   1.0000   1.0000   1.0000   1.0000   1.0000   1.0000   1.0000
     1.0000   1.0000   1.0000   1.0000   1.0000   1.0000   1.0000   1.0000
     1.0000   1.0000   1.0000   1.0000   1.0000   1.0000   1.0000   1.0000
     1.0000   1.0000   1.0000   1.0000   1.0000   1.0000   1.0000   1.0000
     1.0000   1.0000   1.0000   1.0000   1.0000   1.0000   1.0000   1.0000
     1.0000   1.0000   1.0000   1.0000   1.0000   1.0000   1.0000   1.0000
     1.0000   1.0000   1.0000   1.0000   1.0000   1.0000   1.0000   1.0000
     1.0000   1.0000   1.0000   1.0000   1.0000   1.0000   1.0000   1.0000
     1.0000   1.0000   1.0000   1.0000   1.0000   1.0000   1.0000   1.0000
     1.0000   1.0000   1.0000   1.0000   1.0000   1.0000   1.0000   1.0000
     1.0000   1.0000   1.0000   1.0000   1.0000   1.0000   1.0000   1.0000
     1.0000   1.0000   1.0000   1.0000   1.0000   1.0000   1.0000   1.0000
     1.0000   1.0000   1.0000   1.0000   1.0000   1.0000   1.0000   1.0000
     1.0000   1.0000   1.0000   1.0000   1.0000   1.0000   1.0000   1.0000
     1.0000   1.0000   1.0000   1.0000   1.0000   1.0000   1.0000   1.0000
     1.0000   1.0000   1.0000   1.0000   1.0000   1.0000   1.0000   1.0000
     1.0000   1.0000   1.0000   1.0000   1.0000   1.0000   1.0000   1.0000
     1.0000   1.0000   1.0000   1.0000   1.0000   1.0000   1.0000   1.0000
     1.0000   1.0000   1.0000   1.0000   1.0000   1.0000   1.0000   1.0000
     1.0000   1.0000   1.0000   1.0000   1.0000   1.0000   1.0000   1.0000
     1.0000   1.0000   1.0000   1.0000   1.0000   1.0000   1.0000   1.0000
     1.0000   1.0000   1.0000   1.0000   1.0000   1.0000   1.0000   1.0000
     1.0000   1.0000   1.0000   1.0000   1.0000   1.0000   1.0000   1.0000
[...]
     atom   84 type  2   force =     0.00033485    0.00066487   -0.00048088
     atom   85 type  3   force =     0.00073677   -0.00197789   -0.00062204
     atom   86 type  2   force =     0.00009798    0.00041337   -0.00044426
     atom   87 type  3   force =    -0.00132261   -0.00022867   -0.00594880
     atom   88 type  3   force =     0.00073744    0.00002754    0.00148839
     atom   89 type  1   force =    -0.00523180    0.01202939    0.00066330
     atom   90 type  3   force =     0.00010594   -0.00315722    0.00120853
     atom   91 type  2   force =     0.00000535   -0.00059564    0.00002674
     atom   92 type  2   force =    -0.00023744   -0.00055969    0.00005191
     atom   93 type  2   force =     0.00016770    0.00059245   -0.00002517
     atom   94 type  2   force =    -0.00029611    0.00166042   -0.00018417
     atom   95 type  2   force =    -0.00054589   -0.00066384    0.00039087
     atom   96 type  3   force =    -0.00187559   -0.00248284    0.00074964
     atom   97 type  3   force =    -0.00199966    0.00059484   -0.00039289
     atom   98 type  2   force =     0.00039337   -0.00087976    0.00013739
     atom   99 type  2   force =    -0.00059291    0.00040270   -0.00029538
     atom  100 type  3   force =     0.00013492   -0.00147176   -0.00028209
     The Hubbard contrib.    to forces
     atom    1 type  2   force =     0.00000000    0.00000000    0.00000000
     atom    2 type  3   force =     0.00000000    0.00000000    0.00000000
     atom    3 type  2   force =     0.00000000    0.00000000    0.00000000
     atom    4 type  2   force =     0.00000000    0.00000000    0.00000000
     atom    5 type  3   force =     0.00000000    0.00000000    0.00000000
     atom    6 type  2   force =     0.00000000    0.00000000    0.00000000
     atom    7 type  2   force =     0.00000000    0.00000000    0.00000000
     atom    8 type  2   force =     0.00000000    0.00000000    0.00000000
     atom    9 type  3   force =     0.00000000    0.00000000    0.00000000
     atom   10 type  2   force =     0.00000000    0.00000000    0.00000000
     atom   11 type  3   force =     0.00000000    0.00000000    0.00000000
     atom   12 type  3   force =     0.00000000    0.00000000    0.00000000
     atom   13 type  3   force =     0.00000000    0.00000000    0.00000000
     atom   14 type  3   force =     0.00000000    0.00000000    0.00000000
     atom   15 type  2   force =     0.00000000    0.00000000    0.00000000
     atom   16 type  3   force =     0.00000000    0.00000000    0.00000000
     atom   17 type  2   force =     0.00000000    0.00000000    0.00000000
     atom   18 type  2   force =     0.00000000    0.00000000    0.00000000
     atom   19 type  3   force =     0.00000000    0.00000000    0.00000000
     atom   20 type  2   force =     0.00000000    0.00000000    0.00000000
     atom   21 type  2   force =     0.00000000    0.00000000    0.00000000
     atom   22 type  2   force =     0.00000000    0.00000000    0.00000000
     atom   23 type  3   force =     0.00000000    0.00000000    0.00000000
     atom   24 type  2   force =     0.00000000    0.00000000    0.00000000
     atom   25 type  2   force =     0.00000000    0.00000000    0.00000000
     atom   26 type  3   force =     0.00000000    0.00000000    0.00000000
     atom   27 type  2   force =     0.00000000    0.00000000    0.00000000
     atom   28 type  2   force =     0.00000000    0.00000000    0.00000000
     atom   29 type  3   force =     0.00000000    0.00000000    0.00000000
     atom   30 type  2   force =     0.00000000    0.00000000    0.00000000
     atom   31 type  3   force =     0.00000000    0.00000000    0.00000000
     atom   32 type  3   force =     0.00000000    0.00000000    0.00000000
     atom   33 type  3   force =     0.00000000    0.00000000    0.00000000
     atom   34 type  1   force =     0.00000000    0.00000000    0.00000000
     atom   35 type  2   force =     0.00000000    0.00000000    0.00000000
     atom   36 type  2   force =     0.00000000    0.00000000    0.00000000
     atom   37 type  3   force =     0.00000000    0.00000000    0.00000000
     atom   38 type  3   force =     0.00000000    0.00000000    0.00000000
     atom   39 type  2   force =     0.00000000    0.00000000    0.00000000
     atom   40 type  3   force =     0.00000000    0.00000000    0.00000000
     atom   41 type  3   force =     0.00000000    0.00000000    0.00000000
     atom   42 type  3   force =     0.00000000    0.00000000    0.00000000
     atom   43 type  2   force =     0.00000000    0.00000000    0.00000000
     atom   44 type  3   force =     0.00000000    0.00000000    0.00000000
     atom   45 type  2   force =     0.00000000    0.00000000    0.00000000
     atom   46 type  3   force =     0.00000000    0.00000000    0.00000000
     atom   47 type  3   force =     0.00000000    0.00000000    0.00000000
     atom   48 type  3   force =     0.00000000    0.00000000    0.00000000
     atom   49 type  2   force =     0.00000000    0.00000000    0.00000000
     atom   50 type  3   force =     0.00000000    0.00000000    0.00000000
     atom   51 type  3   force =     0.00000000    0.00000000    0.00000000
     atom   52 type  3   force =     0.00000000    0.00000000    0.00000000
     atom   53 type  2   force =     0.00000000    0.00000000    0.00000000
     atom   54 type  3   force =     0.00000000    0.00000000    0.00000000
     atom   55 type  3   force =     0.00000000    0.00000000    0.00000000
     atom   56 type  2   force =     0.00000000    0.00000000    0.00000000
     atom   57 type  3   force =     0.00000000    0.00000000    0.00000000
     atom   58 type  2   force =     0.00000000    0.00000000    0.00000000
     atom   59 type  3   force =     0.00000000    0.00000000    0.00000000
     atom   60 type  3   force =     0.00000000    0.00000000    0.00000000
     atom   61 type  2   force =     0.00000000    0.00000000    0.00000000
     atom   62 type  3   force =     0.00000000    0.00000000    0.00000000
     atom   63 type  2   force =     0.00000000    0.00000000    0.00000000
     atom   64 type  2   force =     0.00000000    0.00000000    0.00000000
     atom   65 type  3   force =     0.00000000    0.00000000    0.00000000
     atom   66 type  2   force =     0.00000000    0.00000000    0.00000000
     atom   67 type  2   force =     0.00000000    0.00000000    0.00000000
     atom   68 type  2   force =     0.00000000    0.00000000    0.00000000
     atom   69 type  2   force =     0.00000000    0.00000000    0.00000000
     atom   70 type  3   force =     0.00000000    0.00000000    0.00000000
     atom   71 type  2   force =     0.00000000    0.00000000    0.00000000
     atom   72 type  2   force =     0.00000000    0.00000000    0.00000000
     atom   73 type  3   force =     0.00000000    0.00000000    0.00000000
     atom   74 type  2   force =     0.00000000    0.00000000    0.00000000
     atom   75 type  2   force =     0.00000000    0.00000000    0.00000000
     atom   76 type  3   force =     0.00000000    0.00000000    0.00000000
     atom   77 type  3   force =     0.00000000    0.00000000    0.00000000
     atom   78 type  2   force =     0.00000000    0.00000000    0.00000000
     atom   79 type  3   force =     0.00000000    0.00000000    0.00000000
     atom   80 type  2   force =     0.00000000    0.00000000    0.00000000
     atom   81 type  3   force =     0.00000000    0.00000000    0.00000000
     atom   82 type  3   force =     0.00000000    0.00000000    0.00000000
     atom   83 type  3   force =     0.00000000    0.00000000    0.00000000
     atom   84 type  2   force =     0.00000000    0.00000000    0.00000000
     atom   85 type  3   force =     0.00000000    0.00000000    0.00000000
     atom   86 type  2   force =     0.00000000    0.00000000    0.00000000
     atom   87 type  3   force =     0.00000000    0.00000000    0.00000000
     atom   88 type  3   force =     0.00000000    0.00000000    0.00000000
     atom   89 type  1   force =     0.00000000    0.00000000    0.00000000
     atom   90 type  3   force =     0.00000000    0.00000000    0.00000000
     atom   91 type  2   force =     0.00000000    0.00000000    0.00000000
     atom   92 type  2   force =     0.00000000    0.00000000    0.00000000
     atom   93 type  2   force =     0.00000000    0.00000000    0.00000000
     atom   94 type  2   force =     0.00000000    0.00000000    0.00000000
     atom   95 type  2   force =     0.00000000    0.00000000    0.00000000
     atom   96 type  3   force =     0.00000000    0.00000000    0.00000000
     atom   97 type  3   force =     0.00000000    0.00000000    0.00000000
     atom   98 type  2   force =     0.00000000    0.00000000    0.00000000
     atom   99 type  2   force =     0.00000000    0.00000000    0.00000000
     atom  100 type  3   force =     0.00000000    0.00000000    0.00000000
     The SCF correction term to forces
     atom    1 type  2   force =    -0.00009977   -0.00127580    0.00032602
     atom    2 type  3   force =    -0.00006002   -0.00006162    0.00029130
     atom    3 type  2   force =    -0.00018983   -0.00061974   -0.00047207
     atom    4 type  2   force =    -0.00018152    0.00017172   -0.00058855
     atom    5 type  3   force =     0.00009208    0.00003112   -0.00008255
     atom    6 type  2   force =     0.00001498   -0.00018129    0.00003021
     atom    7 type  2   force =     0.00018582   -0.00083635    0.00096254
     atom    8 type  2   force =     0.00008439   -0.00131895    0.00062008
     atom    9 type  3   force =    -0.00018348   -0.00064479    0.00002604
     atom   10 type  2   force =     0.00002026   -0.00067879   -0.00006785
     atom   11 type  3   force =     0.00009924   -0.00037943    0.00032144
     atom   12 type  3   force =     0.00004858   -0.00000933   -0.00014812
     atom   13 type  3   force =     0.00003420   -0.00049087    0.00001701
     atom   14 type  3   force =     0.00001736   -0.00001373   -0.00039344
     atom   15 type  2   force =    -0.00003851   -0.00063526    0.00025827
     atom   16 type  3   force =     0.00017133    0.00042282    0.00041404
     atom   17 type  2   force =     0.00022220    0.00117959   -0.00041571
     atom   18 type  2   force =     0.00007537    0.00091976   -0.00079727
     atom   19 type  3   force =     0.00004069    0.00047204   -0.00006356
     atom   20 type  2   force =     0.00004822    0.00040961   -0.00028925
     atom   21 type  2   force =     0.00038497    0.00017448    0.00066321
     atom   22 type  2   force =     0.00023134    0.00090091    0.00056580
     atom   23 type  3   force =    -0.00004441    0.00036629   -0.00053343
     atom   24 type  2   force =     0.00005058    0.00086990   -0.00001538
     atom   25 type  2   force =    -0.00000412    0.00088227   -0.00052899
     atom   26 type  3   force =     0.00006008   -0.00057171    0.00006097
     atom   27 type  2   force =     0.00000321   -0.00010552    0.00008296
     atom   28 type  2   force =    -0.00003414   -0.00007577   -0.00062251
     atom   29 type  3   force =    -0.00000462   -0.00016721   -0.00024474
     atom   30 type  2   force =     0.00007375   -0.00047849   -0.00003718
     atom   31 type  3   force =    -0.00014668   -0.00003279    0.00010576
     atom   32 type  3   force =     0.00000240   -0.00059562    0.00040575
     atom   33 type  3   force =     0.00003776   -0.00054776    0.00040025
     atom   34 type  1   force =     0.00002435   -0.00005470    0.00004212
     atom   35 type  2   force =     0.00024158   -0.00033230   -0.00025892
     atom   36 type  2   force =     0.00023314    0.00021972   -0.00032264
     atom   37 type  3   force =     0.00004129   -0.00005075   -0.00038791
     atom   38 type  3   force =     0.00013567   -0.00034658    0.00000372
     atom   39 type  2   force =     0.00021977   -0.00007242    0.00064735
     atom   40 type  3   force =     0.00009488    0.00041749    0.00012550
     atom   41 type  3   force =    -0.00013388    0.00023346   -0.00016859
     atom   42 type  3   force =     0.00007756    0.00065830   -0.00060414
     atom   43 type  2   force =     0.00004066    0.00068179   -0.00057878
     atom   44 type  3   force =     0.00000737    0.00028913    0.00028930
     atom   45 type  2   force =    -0.00006942    0.00064046    0.00066539
     atom   46 type  3   force =    -0.00022723    0.00010661    0.00046308
     atom   47 type  3   force =    -0.00018010    0.00046287   -0.00014047
     atom   48 type  3   force =     0.00000422    0.00024773   -0.00036784
     atom   49 type  2   force =     0.00007111    0.00074786   -0.00008559
     atom   50 type  3   force =     0.00004886    0.00016347    0.00034538
     atom   51 type  3   force =    -0.00005733   -0.00053939    0.00051619
     atom   52 type  3   force =     0.00005277   -0.00020882    0.00023392
     atom   53 type  2   force =     0.00029082   -0.00027590   -0.00036119
     atom   54 type  3   force =     0.00005468   -0.00004983   -0.00036359
     atom   55 type  3   force =    -0.00010907   -0.00015424   -0.00009991
     atom   56 type  2   force =    -0.00035938   -0.00077097    0.00056306
     atom   57 type  3   force =     0.00005759   -0.00058210    0.00014044
     atom   58 type  2   force =    -0.00012679   -0.00038132   -0.00053453
     atom   59 type  3   force =    -0.00004022   -0.00021806   -0.00037686
     atom   60 type  3   force =    -0.00007353   -0.00063052    0.00030947
     atom   61 type  2   force =    -0.00018193   -0.00072922    0.00011889
     atom   62 type  3   force =    -0.00019608    0.00017362    0.00029893
     atom   63 type  2   force =    -0.00031305   -0.00021040    0.00002356
     atom   64 type  2   force =    -0.00030595    0.00097692   -0.00019999
     atom   65 type  3   force =    -0.00018223    0.00024744   -0.00036227
     atom   66 type  2   force =    -0.00016000   -0.00011613   -0.00001229
     atom   67 type  2   force =    -0.00027900    0.00006632    0.00038313
     atom   68 type  2   force =    -0.00033344    0.00047458    0.00039372
     atom   69 type  2   force =    -0.00016062    0.00065643    0.00050694
     atom   70 type  3   force =     0.00010970    0.00041437   -0.00042130
     atom   71 type  2   force =    -0.00020020    0.00093466   -0.00069833
     atom   72 type  2   force =     0.00004905    0.00061214   -0.00055150
     atom   73 type  3   force =    -0.00010369    0.00043323   -0.00005176
     atom   74 type  2   force =    -0.00025226    0.00000966    0.00038231
     atom   75 type  2   force =    -0.00006268   -0.00153066    0.00081080
     atom   76 type  3   force =     0.00005877   -0.00021355    0.00039442
     atom   77 type  3   force =     0.00004837   -0.00031135   -0.00030827
     atom   78 type  2   force =    -0.00021304    0.00012881   -0.00062923
     atom   79 type  3   force =     0.00000586    0.00024503   -0.00051791
     atom   80 type  2   force =     0.00021360   -0.00036181   -0.00021185
     atom   81 type  3   force =     0.00014688   -0.00028129    0.00060193
     atom   82 type  3   force =     0.00002414   -0.00084225    0.00040249
     atom   83 type  3   force =    -0.00010011   -0.00059611    0.00026760
     atom   84 type  2   force =    -0.00001881   -0.00047889   -0.00051708
     atom   85 type  3   force =    -0.00007350   -0.00025711   -0.00040314
     atom   86 type  2   force =     0.00003128   -0.00057113   -0.00006351
     atom   87 type  3   force =    -0.00003869   -0.00016296    0.00023156
     atom   88 type  3   force =    -0.00003992    0.00028192    0.00029086
     atom   89 type  1   force =     0.00004555    0.00008501    0.00006555
     atom   90 type  3   force =     0.00012232    0.00052662   -0.00024084
     atom   91 type  2   force =     0.00012432   -0.00003728   -0.00052987
     atom   92 type  2   force =     0.00007116    0.00090823   -0.00038026
     atom   93 type  2   force =    -0.00008091    0.00012954   -0.00003986
     atom   94 type  2   force =     0.00040897    0.00066544    0.00074928
     atom   95 type  2   force =     0.00009286    0.00031082    0.00097813
     atom   96 type  3   force =     0.00018245    0.00073197   -0.00008926
     atom   97 type  3   force =     0.00004561    0.00061968   -0.00049667
     atom   98 type  2   force =    -0.00001896    0.00118820   -0.00070796
     atom   99 type  2   force =     0.00002069    0.00068014   -0.00036841
     atom  100 type  3   force =     0.00001301    0.00044307    0.00010891

     Total force =     1.068557     Total SCF correction =     0.007072

     Writing output data file Zr49Cu49Al2.save
 
     init_run     :     38.71s CPU     39.67s WALL (       1 calls)
     electrons    :   6346.39s CPU   6448.36s WALL (       1 calls)
     forces       :     23.98s CPU     24.65s WALL (       1 calls)

     Called by init_run:
     wfcinit      :     32.24s CPU     32.60s WALL (       1 calls)
     wfcinit:atom :      0.05s CPU      0.09s WALL (       1 calls)
     wfcinit:wfcr :     31.92s CPU     32.15s WALL (       1 calls)
     potinit      :      1.13s CPU      1.20s WALL (       1 calls)

     Called by electrons:
     c_bands      :   5417.54s CPU   5477.87s WALL (      55 calls)
     sum_band     :    787.51s CPU    808.63s WALL (      55 calls)
     v_of_rho     :     24.31s CPU     24.99s WALL (      56 calls)
     v_h          :      2.31s CPU      2.39s WALL (      56 calls)
     v_xc         :     22.38s CPU     23.00s WALL (      57 calls)
     newd         :     98.81s CPU    117.66s WALL (      56 calls)
     PAW_pot      :      9.87s CPU     10.26s WALL (      56 calls)
     mix_rho      :      5.94s CPU      6.28s WALL (      55 calls)

     Called by c_bands:
     init_us_2    :      9.81s CPU      9.91s WALL (     111 calls)
     cegterg      :   5157.09s CPU   5211.05s WALL (      55 calls)

     Called by sum_band:
     sum_band:bec :      1.55s CPU      1.56s WALL (      55 calls)
     addusdens    :    129.31s CPU    146.86s WALL (      55 calls)

     Called by *egterg:
     h_psi        :   2195.45s CPU   2206.57s WALL (     152 calls)
     s_psi        :    462.28s CPU    464.21s WALL (     152 calls)
     g_psi        :      2.89s CPU      2.90s WALL (      96 calls)
     cdiaghg      :   1160.09s CPU   1176.74s WALL (     151 calls)
     cegterg:over :    550.93s CPU    553.79s WALL (      96 calls)
     cegterg:upda :    313.40s CPU    314.93s WALL (      96 calls)
     cegterg:last :    279.54s CPU    279.64s WALL (      55 calls)
     cdiaghg:chol :     57.46s CPU     57.96s WALL (     151 calls)
     cdiaghg:inve :     68.99s CPU     69.43s WALL (     151 calls)
     cdiaghg:para :    171.80s CPU    178.43s WALL (     302 calls)

     Called by h_psi:
     h_psi:pot    :   2188.84s CPU   2199.94s WALL (     152 calls)
     h_psi:calbec :    442.91s CPU    443.63s WALL (     152 calls)
     vloc_psi     :   1293.55s CPU   1302.57s WALL (     152 calls)
     add_vuspsi   :    452.38s CPU    453.74s WALL (     152 calls)

     General routines
     calbec       :    671.80s CPU    672.88s WALL (     211 calls)
     fft          :     30.59s CPU     32.16s WALL (     903 calls)
     ffts         :      0.85s CPU      0.87s WALL (     111 calls)
     fftw         :   1173.48s CPU   1182.23s WALL (  307514 calls)
     interpolate  :      5.12s CPU      5.52s WALL (     111 calls)
 
     Parallel routines
     fft_scatt_xy :    104.65s CPU    105.26s WALL (  308528 calls)
     fft_scatt_yz :    231.18s CPU    234.30s WALL (  308528 calls)

     PAW routines
     PAW_pot      :      9.87s CPU     10.26s WALL (      56 calls)
 
     PWSCF        :     1h46m CPU        1h53m WALL

 
   This run was terminated on:  18:51:10  19Apr2019            

=------------------------------------------------------------------------------=
   JOB DONE.
=------------------------------------------------------------------------------=
