  COHP#  atomMU  atomNU     distance     translation      ICOHP (at) eF   for spin  1
      1     Cu1     Cu2      2.62064       0   0   0           -0.46806 
      2     Cu1     Zr5      3.22750       0   0   1           -0.44596 
      3     Cu1     Zr7      3.22579       0   0   0           -0.37440 
      4     Cu1    Cu12      3.80507       0   1   0           -0.01682 
      5     Cu1    Cu19      2.06043       0   1   0           -1.37210 
      6     Cu1    Zr20      2.19164       0   1   0           -3.81492 
      7     Cu1    Zr25      3.65250       0   0   0           -0.14842 
      8     Cu1    Zr45      3.66024       0   1   0           -0.20688 
      9     Cu1    Al50      4.16055       1   0   0           -0.02411 
     10     Cu1    Cu75      1.95506       1   0   0           -1.88457 
     11     Cu1    Zr76      2.91484       1   0   0           -0.72925 
     12     Cu1    Zr80      3.24214       1   0   1           -0.39608 
     13     Cu1    Cu81      3.76141       1   0   0           -0.02524 
     14     Cu1    Al82      3.97109       1   0   0           -0.08820 
     15     Cu1    Zr93      3.68728       1   1   0           -0.13553 
     16     Cu1    Zr95      3.37290       1   1   0           -0.25481 
     17     Cu1    Cu97      3.89148       1   1   0           -0.00355 
     18     Cu2     Al3      2.64601       0   0   0           -1.26983 
     19     Cu2     Zr7      3.48610       0   0   0           -0.15480 
     20     Cu2     Zr8      3.95755       0   0   0           -0.03135 
     21     Cu2    Al14      3.48063       0   1   0           -0.30021 
     22     Cu2    Zr20      2.32064       0   1   0           -2.71446 
     23     Cu2    Zr21      2.77005       0   1   0           -0.79062 
     24     Cu2    Cu47      3.58447       0   1   0           -0.01759 
     25     Cu2    Cu75      3.83280       1   0   0           -0.02229 
     26     Cu2    Zr76      2.37850       1   0   0           -2.60883 
     27     Cu2    Zr77      3.08306       1   0   0           -0.63325 
     28     Cu2    Cu84      2.85147       1   0   0           -0.17191 
     29     Cu2    Zr95      3.35098       1   1   0           -0.36785 
     30     Cu2    Cu97      2.59346       1   1   0           -0.45051 
     31     Al3     Zr4      2.99910       0   0   0           -1.50030 
     32     Al3     Zr7      3.11354       0   0   0           -1.38639 
     33     Al3     Zr8      2.49583       0   0   0           -3.81190 
     34     Al3     Zr9      2.79497       0   0   0           -2.28689 
     35     Al3    Zr20      4.07206       0   1   0           -0.35818 
     36     Al3    Zr21      2.59577       0   1   0           -3.54583 
     37     Al3    Cu23      4.16500       0   1   0           -0.05267 
     38     Al3    Zr28      2.91143       0   0   0           -1.90649 
     39     Al3    Zr35      3.77062       0   0   0           -0.49941 
     40     Al3    Cu47      3.51827       0   1   0           -0.30427 
     41     Al3    Zr76      3.77201       1   0   0           -0.61880 
     42     Al3    Zr78      3.32032       1   0   0           -1.04245 
     43     Al3    Cu84      2.84275       1   0   0           -0.84420 
     44     Al3    Zr85      4.11780       1   0   0           -0.31832 
     45     Al3    Cu91      4.18442       1   0   0           -0.15168 
     46     Zr4     Zr5      3.33663       0   0   0           -1.08578 
     47     Zr4     Zr9      2.63164       0   0   0           -4.59630 
     48     Zr4    Cu10      2.79027       0   0   0           -0.97289 
     49     Zr4    Zr21      3.62479       0   1   0           -0.48772 
     50     Zr4    Cu23      3.29033       0   1   0           -0.31972 
     51     Zr4    Zr28      3.58047       0   0   0           -0.54664 
     52     Zr4    Cu29      3.41556       0   0   0           -0.29616 
     53     Zr4    Zr30      2.82447       0   0   0           -3.19637 
     54     Zr4    Cu31      2.92257       0   0   0           -0.86680 
     55     Zr4    Cu32      3.15355       0   0   0           -0.49067 
     56     Zr4    Zr35      3.52041       0   0   0           -0.77143 
     57     Zr4    Cu37      3.44376       0   0   0           -0.24761 
     58     Zr4    Zr49      3.08837       0   1   0           -1.70053 
     59     Zr4    Zr53      3.50746       0   0   0           -0.87044 
     60     Zr4    Cu72      4.09561       0   1   0           -0.04944 
     61     Zr4    Zr78      3.89620       1   0   0           -0.31266 
     62     Zr5     Zr6      3.61109       0   0  -1           -0.67898 
     63     Zr5     Zr7      4.12555       0   0  -1           -0.23364 
     64     Zr5     Zr9      3.66951       0   0   0           -0.58861 
     65     Zr5    Cu10      3.35814       0   0   0           -0.26713 
     66     Zr5    Cu19      2.69752       0   1  -1           -1.20497 
     67     Zr5    Cu23      2.79667       0   1   0           -0.97806 
     68     Zr5    Zr25      3.13888       0   0  -1           -1.75181 
     69     Zr5    Cu31      2.45496       0   0   0           -2.28735 
     70     Zr5    Cu32      3.40500       0   0   0           -0.23029 
     71     Zr5    Zr45      4.08974       0   1  -1           -0.39104 
     72     Zr5    Zr49      4.04850       0   1   0           -0.43407 
     73     Zr5    Cu75      3.01512       1   0  -1           -0.70498 
     74     Zr5    Zr78      3.39781       1   0   0           -1.07770 
     75     Zr5    Zr80      4.01850       1   0   0           -0.34840 
     76     Zr5    Al82      4.04727       1   0  -1           -0.26770 
     77     Zr5    Zr86      2.44731       1   0   0           -7.75711 
     78     Zr6     Zr7      3.42956       0   0   0           -0.65879 
     79     Zr6    Cu10      2.83751       0   0   1           -1.03063 
     80     Zr6    Cu11      2.17410       0   0   0           -3.89843 
     81     Zr6    Zr13      3.15276       0   0   0           -1.28026 
     82     Zr6    Cu17      2.63710       0   0   1           -1.55352 
     83     Zr6    Cu18      3.51582       0   0   1           -0.45037 
     84     Zr6    Zr25      2.77976       0   0   0           -3.11167 
     85     Zr6    Cu26      3.92592       0   0   0           -0.11358 
     86     Zr6    Cu27      4.04001       0   0   0           -0.04424 
     87     Zr6    Cu31      4.14888       0   0   1           -0.07758 
     88     Zr6    Cu32      2.50719       0   0   1           -2.02634 
     89     Zr6    Cu33      3.40206       0   0   0           -0.20012 
     90     Zr6    Al34      2.99076       0   0   0           -1.57604 
     91     Zr6    Zr38      4.12966       0   0   1           -0.27505 
     92     Zr6    Cu39      3.24035       0   0   0           -0.36184 
     93     Zr6    Zr55      3.85314       0   0   0           -0.44315 
     94     Zr6    Al82      3.53582       1   0   0           -0.78885 
     95     Zr6    Zr86      4.03555       1   0   1           -0.30522 
     96     Zr7     Zr8      2.69299       0   0   0           -3.29092 
     97     Zr7    Cu11      3.99538       0   0   0           -0.04174 
     98     Zr7    Zr13      3.75927       0   0   0           -0.29078 
     99     Zr7    Zr20      3.80272       0   1   0           -0.49572 
    100     Zr7    Zr25      2.67883       0   0   0           -4.24932 
    101     Zr7    Zr28      2.85514       0   0   0           -2.77679 
    102     Zr7    Al34      3.62047       0   0   0           -0.54449 
    103     Zr7    Zr35      3.87653       0   0   0           -0.28274 
    104     Zr7    Cu46      3.83283       0   1   0           -0.12190 
    105     Zr7    Cu75      3.72158       1   0   0           -0.08030 
    106     Zr7    Zr76      3.63488       1   0   0           -0.48989 
    107     Zr7    Al82      2.35644       1   0   0           -4.92292 
    108     Zr7    Zr88      4.07841       1   0   0           -0.22374 
    109     Zr8     Zr9      3.01097       0   0   0           -1.71986 
    110     Zr8    Cu15      3.32092       0   0   0           -0.36742 
    111     Zr8    Zr16      4.09980       0   0   0           -0.35239 
    112     Zr8    Zr28      4.09660       0   0   0           -0.18834 
    113     Zr8    Zr35      3.64813       0   0   0           -0.52342 
    114     Zr8    Cu66      3.69961       1   0   0           -0.20767 
    115     Zr8    Zr76      3.47266       1   0   0           -0.64820 
    116     Zr8    Al82      3.02857       1   0   0           -1.47925 
    117     Zr8    Zr83      3.03635       1   0   0           -1.82579 
    118     Zr8    Cu84      3.36156       1   0   0           -0.26797 
    119     Zr8    Zr85      3.82108       1   0   0           -0.45983 
    120     Zr8    Zr88      3.18424       1   0   0           -1.41396 
    121     Zr8    Cu91      2.16119       1   0   0           -4.20239 
    122     Zr8    Zr96      4.08419       1   0   0           -0.42828 
    123     Zr9    Cu10      2.71095       0   0   0           -1.17775 
    124     Zr9    Cu15      3.51648       0   0   0           -0.25131 
    125     Zr9    Zr16      2.66800       0   0   0           -4.92980 
    126     Zr9    Cu17      3.88015       0   0   0           -0.10795 
    127     Zr9    Zr35      3.43197       0   0   0           -0.85094 
    128     Zr9    Zr78      3.54383       1   0   0           -0.65451 
    129     Zr9    Cu84      4.01323       1   0   0           -0.02044 
    130     Zr9    Zr85      3.25852       1   0   0           -1.29211 
    131     Zr9    Zr86      3.20906       1   0   0           -1.51167 
    132     Zr9    Cu91      3.11678       1   0   0           -0.42862 
    133     Zr9    Cu92      3.81312       1   0   0           -0.16061 
    134    Cu10    Cu11      3.95749       0   0  -1           -0.01569 
    135    Cu10    Zr16      3.32747       0   0   0           -0.41708 
    136    Cu10    Cu17      2.04364       0   0   0           -1.52868 
    137    Cu10    Cu18      3.58082       0   0   0           -0.02126 
    138    Cu10    Cu29      3.99025       0   0   0           -0.00877 
    139    Cu10    Cu31      3.77742       0   0   0           -0.01762 
    140    Cu10    Cu32      2.05102       0   0   0           -1.41490 
    141    Cu10    Zr35      3.87866       0   0   0           -0.09390 
    142    Cu10    Cu37      2.40852       0   0   0           -0.69848 
    143    Cu10    Zr38      4.04340       0   0   0           -0.03338 
    144    Cu10    Zr43      3.18985       0   0   0           -0.45165 
    145    Cu10    Zr53      3.80357       0   0   0           -0.15734 
    146    Cu10    Zr86      3.65255       1   0   0           -0.17735 
    147    Cu11    Cu12      2.97248       0   0   0           -0.20400 
    148    Cu11    Zr13      2.75750       0   0   0           -1.06094 
    149    Cu11    Cu17      2.57526       0   0   1           -0.37374 
    150    Cu11    Cu18      2.24936       0   0   1           -1.04219 
    151    Cu11    Zr24      3.73097       0   0   1           -0.13547 
    152    Cu11    Cu33      4.02917       0   0   0           -0.00550 
    153    Cu11    Al34      4.08342       0   0   0           -0.09171 
    154    Cu11    Cu39      2.90496       0   0   0           -0.21068 
    155    Cu11    Al82      2.94398       1   0   0           -0.65701 
    156    Cu11    Zr86      4.05630       1   0   1           -0.02474 
    157    Cu11    Zr87      3.68826       1   0   0           -0.09745 
    158    Cu11    Zr88      3.01576       1   0   0           -0.57384 
    159    Cu11    Cu89      3.85324       1   0   0           -0.02394 
    160    Cu11    Zr93      2.58658       1   0   0           -1.70584 
    161    Cu11   Al100      3.92799       1   0   1           -0.07386 
    162    Cu12    Zr13      2.53498       0   0   0           -1.61468 
    163    Cu12    Al14      2.60795       0   0   0           -1.19445 
    164    Cu12    Cu19      3.37876       0   0   0           -0.08190 
    165    Cu12    Zr20      2.52623       0   0   0           -1.67522 
    166    Cu12    Zr24      3.71417       0   0   1           -0.20090 
    167    Cu12    Cu33      3.28299       0   0   0           -0.04331 
    168    Cu12    Cu39      2.23784       0   0   0           -1.14490 
    169    Cu12    Zr40      3.12324       0   0   0           -0.41484 
    170    Cu12    Cu41      3.86029       0   0   0           -0.01153 
    171    Cu12    Zr45      3.34277       0   0   0           -0.36141 
    172    Cu12    Zr88      3.58223       1   0   0           -0.12824 
    173    Cu12    Zr93      2.59222       1   0   0           -1.71375 
    174    Cu12    Zr95      4.18978       1   0   0           -0.06054 
    175    Cu12    Cu97      3.10115       1   0   0           -0.05843 
    176    Zr13    Al14      2.97817       0   0   0           -1.81169 
    177    Zr13    Cu15      3.03474       0   0   0           -0.48491 
    178    Zr13    Cu33      3.09171       0   0   0           -0.44823 
    179    Zr13    Al34      2.32426       0   0   0           -5.44592 
    180    Zr13    Zr35      3.13464       0   0   0           -1.32910 
    181    Zr13    Cu36      3.82767       0   0   0           -0.07755 
    182    Zr13    Cu39      3.30783       0   0   0           -0.37335 
    183    Zr13    Zr40      4.19339       0   0   0           -0.20334 
    184    Zr13    Cu41      3.07041       0   0   0           -0.35526 
    185    Zr13    Zr59      3.85589       0   0   0           -0.32332 
    186    Zr13    Al82      4.08342       1   0   0           -0.32815 
    187    Zr13    Zr88      2.90634       1   0   0           -2.78148 
    188    Zr13    Zr93      4.10027       1   0   0           -0.39467 
    189    Zr13    Cu97      4.01817       1   0   0           -0.02565 
    190    Al14    Cu15      2.84290       0   0   0           -0.90455 
    191    Al14    Zr20      2.87109       0   0   0           -2.07423 
    192    Al14    Zr21      3.00542       0   0   0           -1.61212 
    193    Al14    Cu22      3.04092       0   0   0           -0.63066 
    194    Al14    Zr40      3.12122       0   0   0           -1.30346 
    195    Al14    Cu41      2.16187       0   0   0           -2.89331 
    196    Al14    Zr43      3.88651       0   0   0           -0.42363 
    197    Al14    Cu47      3.22105       0   0   0           -0.38442 
    198    Al14    Cu48      2.92861       0   0   0           -0.71787 
    199    Al14    Zr59      4.16076       0   0   0           -0.30623 
    200    Al14    Zr77      4.12412       1  -1   0           -0.29790 
    201    Al14    Zr88      3.60421       1   0   0           -0.64406 
    202    Al14    Cu97      2.29506       1   0   0           -2.32088 
    203    Al14    Cu98      2.87750       1   0   0           -0.74773 
    204    Cu15    Zr16      2.76140       0   0   0           -1.30024 
    205    Cu15    Cu22      3.20572       0   0   0           -0.04269 
    206    Cu15    Zr35      2.45520       0   0   0           -2.25680 
    207    Cu15    Cu41      3.01370       0   0   0           -0.08180 
    208    Cu15    Zr43      2.98329       0   0   0           -0.67473 
    209    Cu15    Zr88      2.84028       1   0   0           -0.87364 
    210    Cu15    Cu91      3.12349       1   0   0           -0.09225 
    211    Cu15    Zr96      4.13367       1   0   0           -0.04252 
    212    Cu15    Cu97      3.54117       1   0   0            0.00768 
    213    Cu15    Cu98      2.18705       1   0   0           -0.99537 
    214    Cu15    Al99      4.07278       1   0   0           -0.05516 
    215    Zr16    Cu17      2.87630       0   0   0           -0.77578 
    216    Zr16    Cu18      2.81908       0   0   0           -0.61313 
    217    Zr16    Cu22      3.54290       0   0   0           -0.13794 
    218    Zr16    Zr24      3.99085       0   0   0           -0.19467 
    219    Zr16    Zr43      3.47644       0   0   0           -0.98280 
    220    Zr16    Zr73      4.16979       1   0   0           -0.19357 
    221    Zr16    Zr86      3.83247       1   0   0           -0.45563 
    222    Zr16    Zr90      2.82672       1   0   0           -2.71658 
    223    Zr16    Cu91      2.77748       1   0   0           -0.92970 
    224    Zr16    Cu92      3.08738       1   0   0           -0.45784 
    225    Zr16    Cu98      2.77737       1   0   0           -0.94782 
    226    Zr16    Al99      3.16783       1   0   0           -1.05022 
    227    Zr16   Al100      2.73627       1   0   0           -2.41936 
    228    Cu17    Cu18      2.20647       0   0   0           -1.01818 
    229    Cu17    Cu22      3.85061       0   0   0           -0.02793 
    230    Cu17    Zr24      2.76418       0   0   0           -1.14694 
    231    Cu17    Cu32      3.43506       0   0   0           -0.01319 
    232    Cu17    Cu37      3.52620       0   0   0           -0.00987 
    233    Cu17    Zr38      3.63283       0   0   0           -0.23039 
    234    Cu17    Cu39      2.93046       0   0  -1           -0.23391 
    235    Cu17    Zr43      2.89681       0   0   0           -0.92870 
    236    Cu17    Cu44      4.14015       0   0   0            0.00063 
    237    Cu17    Zr86      3.94915       1   0   0           -0.03836 
    238    Cu17    Zr93      3.89311       1   0  -1           -0.07686 
    239    Cu17   Al100      3.53094       1   0   0           -0.23109 
    240    Cu18    Zr24      3.41155       0   0   0           -0.13057 
    241    Cu18    Cu39      4.19116       0   0  -1           -0.00872 
    242    Cu18    Zr68      4.13864       1   0   0           -0.02905 
    243    Cu18    Al82      3.70060       1   0  -1           -0.24771 
    244    Cu18    Zr86      2.99665       1   0   0           -0.74133 
    245    Cu18    Zr87      3.05125       1   0  -1           -0.46783 
    246    Cu18    Cu89      4.02529       1   0  -1           -0.00217 
    247    Cu18    Cu92      2.73279       1   0   0           -0.20308 
    248    Cu18    Zr93      2.98856       1   0  -1           -0.47313 
    249    Cu18    Cu94      3.10160       1   0  -1           -0.05604 
    250    Cu18    Al99      4.14353       1   0   0           -0.05601 
    251    Cu18   Al100      1.97552       1   0   0           -3.89431 
    252    Cu19    Zr20      2.76431       0   0   0           -0.98309 
    253    Cu19    Cu23      2.75704       0   0   1           -0.34323 
    254    Cu19    Zr24      2.87156       0   0   1           -0.94032 
    255    Cu19    Zr25      3.52380       0  -1   0           -0.15065 
    256    Cu19    Cu31      2.93190       0  -1   1           -0.14274 
    257    Cu19    Cu39      3.74462       0   0   0           -0.00931 
    258    Cu19    Cu44      3.57234       0   0   1           -0.04981 
    259    Cu19    Zr45      2.24899       0   0   0           -3.36387 
    260    Cu19    Zr49      3.79458       0   0   1           -0.13016 
    261    Cu19    Cu75      3.27479       1  -1   0           -0.04790 
    262    Cu19    Zr80      3.00131       1  -1   1           -0.80392 
    263    Cu19    Zr93      3.53620       1   0   0           -0.19760 
    264    Zr20    Zr21      3.69241       0   0   0           -0.51391 
    265    Zr20    Zr25      3.81197       0  -1   0           -0.52511 
    266    Zr20    Zr28      4.04779       0  -1   0           -0.29583 
    267    Zr20    Zr40      2.91719       0   0   0           -2.20751 
    268    Zr20    Zr45      2.89497       0   0   0           -2.77806 
    269    Zr20    Cu46      3.15594       0   0   0           -0.45498 
    270    Zr20    Cu47      2.72336       0   0   0           -1.04620 
    271    Zr20    Cu75      4.13004       1  -1   0           -0.11738 
    272    Zr20    Zr76      4.13706       1  -1   0           -0.44763 
    273    Zr20    Zr93      3.88057       1   0   0           -0.40671 
    274    Zr20    Zr95      4.08626       1   0   0           -0.28086 
    275    Zr20    Cu97      3.11030       1   0   0           -0.32362 
    276    Zr21    Cu22      2.52360       0   0   0           -1.77830 
    277    Zr21    Cu23      2.86597       0   0   0           -0.77390 
    278    Zr21    Zr28      4.11441       0  -1   0           -0.20988 
    279    Zr21    Zr30      4.18301       0  -1   0           -0.24801 
    280    Zr21    Cu41      4.14491       0   0   0           -0.01997 
    281    Zr21    Cu47      2.73845       0   0   0           -1.11048 
    282    Zr21    Cu48      2.52243       0   0   0           -1.68043 
    283    Zr21    Zr49      3.36356       0   0   0           -1.26171 
    284    Zr21    Zr77      3.52334       1  -1   0           -0.66800 
    285    Zr21    Zr78      3.02969       1  -1   0           -1.72982 
    286    Zr21    Cu84      3.64377       1  -1   0           -0.10633 
    287    Zr21    Cu97      3.55137       1   0   0           -0.08491 
    288    Zr21    Cu98      3.67552       1   0   0           -0.03488 
    289    Zr21    Al99      3.40059       1   0   0           -1.06000 
    290    Cu22    Cu23      2.99012       0   0   0           -0.10582 
    291    Cu22    Zr24      2.77127       0   0   0           -0.86172 
    292    Cu22    Cu41      3.27453       0   0   0           -0.04273 
    293    Cu22    Cu42      3.93311       0   0   0           -0.00291 
    294    Cu22    Zr43      2.24397       0   0   0           -3.78763 
    295    Cu22    Cu44      3.73411       0   0   0           -0.03540 
    296    Cu22    Cu48      2.70639       0   0   0           -0.38270 
    297    Cu22    Zr49      3.42946       0   0   0           -0.30750 
    298    Cu22    Zr77      4.00262       1  -1   0           -0.01626 
    299    Cu22    Zr78      4.02140       1  -1   0           -0.01096 
    300    Cu22    Cu97      4.02066       1   0   0           -0.00114 
    301    Cu22    Cu98      2.62455       1   0   0           -0.12826 
    302    Cu22    Al99      2.34604       1   0   0           -2.12193 
    303    Cu23    Zr24      2.72212       0   0   0           -1.11514 
    304    Cu23    Cu31      2.98806       0  -1   0           -0.17148 
    305    Cu23    Cu44      3.55966       0   0   0           -0.04496 
    306    Cu23    Zr45      4.05927       0   0  -1           -0.07124 
    307    Cu23    Cu48      3.93406       0   0   0           -0.01871 
    308    Cu23    Zr49      2.39588       0   0   0           -2.52894 
    309    Cu23    Zr78      2.30553       1  -1   0           -2.74633 
    310    Cu23    Zr80      3.30578       1  -1   0           -0.35920 
    311    Cu23    Al99      3.20522       1   0   0           -0.46087 
    312    Zr24    Zr38      4.13246       0   0   0           -0.37327 
    313    Zr24    Cu39      2.78511       0   0  -1           -1.24685 
    314    Zr24    Zr43      3.42446       0   0   0           -1.03867 
    315    Zr24    Cu44      2.89849       0   0   0           -0.94873 
    316    Zr24    Zr45      3.87213       0   0  -1           -0.53122 
    317    Zr24    Zr49      3.71967       0   0   0           -0.72764 
    318    Zr24    Zr80      2.94530       1  -1   0           -2.19257 
    319    Zr24    Zr93      3.01267       1   0  -1           -2.01210 
    320    Zr24    Al99      2.91779       1   0   0           -1.85447 
    321    Zr24   Al100      3.40731       1   0   0           -0.70687 
    322    Zr25    Cu26      2.50322       0   0   0           -1.83855 
    323    Zr25    Cu27      3.05125       0   0   0           -0.43427 
    324    Zr25    Zr28      3.39486       0   0   0           -0.86968 
    325    Zr25    Cu31      2.74458       0   0   1           -1.08557 
    326    Zr25    Cu32      3.02668       0   0   1           -0.57855 
    327    Zr25    Al34      3.27317       0   0   0           -1.01764 
    328    Zr25    Zr45      3.23688       0   1   0           -1.34251 
    329    Zr25    Cu46      2.46647       0   1   0           -1.94523 
    330    Zr25    Zr69      3.90199       0   1   0           -0.51158 
    331    Zr25    Al74      3.96019       0   1   1           -0.45555 
    332    Cu26    Cu27      2.60643       0   0   0           -0.57917 
    333    Cu26    Cu31      2.73337       0   0   1           -0.11956 
    334    Cu26    Cu32      2.59441       0   0   1           -0.40693 
    335    Cu26    Al34      3.96639       0   0   0           -0.14418 
    336    Cu26    Zr45      3.67599       0   1   0           -0.06236 
    337    Cu26    Cu46      3.17311       0   1   0           -0.08307 
    338    Cu26    Al50      4.08222       0   0   0           -0.06401 
    339    Cu26    Zr53      2.79354       0   0   1           -0.79695 
    340    Cu26    Cu54      2.60459       0   0   1           -0.44545 
    341    Cu26    Zr55      3.38329       0   0   0           -0.40291 
    342    Cu26    Zr68      4.05962       0   1   1           -0.27617 
    343    Cu26    Zr69      2.38963       0   1   0           -2.10100 
    344    Cu26    Al74      2.18589       0   1   1           -2.57410 
    345    Cu26    Cu94      3.50760       0   1   0           -0.00679 
    346    Cu27    Zr28      3.32776       0   0   0           -0.28144 
    347    Cu27    Cu33      3.92230       0   0   0           -0.01545 
    348    Cu27    Al34      2.09747       0   0   0           -3.32960 
    349    Cu27    Cu36      2.83769       0   0   0           -0.10951 
    350    Cu27    Cu46      3.02068       0   1   0           -0.18221 
    351    Cu27    Al50      3.23158       0   0   0           -0.39437 
    352    Cu27    Zr51      2.61260       0   0   0           -1.52656 
    353    Cu27    Cu54      3.64029       0   0   1           -0.01662 
    354    Cu27    Zr55      3.17266       0   0   0           -0.27054 
    355    Cu27    Cu57      3.06694       0   0   0           -0.03106 
    356    Cu27    Zr69      2.53701       0   1   0           -2.07866 
    357    Cu27    Cu70      3.59606       0   1   0           -0.05087 
    358    Zr28    Cu29      3.46285       0   0   0           -0.24755 
    359    Zr28    Zr30      2.70891       0   0   0           -4.23369 
    360    Zr28    Al34      3.24855       0   0   0           -1.10796 
    361    Zr28    Zr35      2.82753       0   0   0           -2.78639 
    362    Zr28    Cu36      3.61362       0   0   0           -0.10271 
    363    Zr28    Cu46      2.58316       0   1   0           -1.65643 
    364    Zr28    Cu47      2.66228       0   1   0           -1.28285 
    365    Zr28    Cu70      3.36123       0   1   0           -0.32742 
    366    Cu29    Zr30      2.76745       0   0   0           -1.01330 
    367    Cu29    Cu32      4.04922       0   0   0           -0.00367 
    368    Cu29    Zr35      2.64886       0   0   0           -1.48559 
    369    Cu29    Cu36      2.41294       0   0   0           -0.82829 
    370    Cu29    Cu37      2.10850       0   0   0           -1.40219 
    371    Cu29    Zr43      4.01619       0   0   0           -0.07830 
    372    Cu29    Zr51      3.50322       0   0   0           -0.23413 
    373    Cu29    Zr52      2.89194       0   0   0           -0.81873 
    374    Cu29    Zr53      2.88845       0   0   0           -0.90725 
    375    Cu29    Cu58      4.11840       0   0   0            0.00078 
    376    Cu29    Zr60      3.11588       0   0   0           -0.55060 
    377    Cu29    Cu61      3.43165       0   0   0           -0.01783 
    378    Cu29    Al71      3.31960       0   1   0           -0.44075 
    379    Zr30    Zr35      4.07395       0   0   0           -0.36360 
    380    Zr30    Cu46      3.98377       0   1   0           -0.09946 
    381    Zr30    Cu47      2.94798       0   1   0           -0.80672 
    382    Zr30    Cu48      3.47041       0   1   0           -0.26900 
    383    Zr30    Zr49      3.35877       0   1   0           -1.11827 
    384    Zr30    Zr53      3.40513       0   0   0           -0.88186 
    385    Zr30    Zr65      3.29144       0   1   0           -1.16764 
    386    Zr30    Cu70      2.71386       0   1   0           -1.03681 
    387    Zr30    Al71      2.66601       0   1   0           -2.90764 
    388    Zr30    Cu72      2.48195       0   1   0           -1.85319 
    389    Cu31    Cu32      2.61024       0   0   0           -0.33013 
    390    Cu31    Cu44      3.65075       0   1   0           -0.03174 
    391    Cu31    Zr45      2.78127       0   1  -1           -0.81941 
    392    Cu31    Cu46      4.16795       0   1  -1           -0.00945 
    393    Cu31    Zr49      2.45998       0   1   0           -1.84995 
    394    Cu31    Zr53      3.34297       0   0   0           -0.23780 
    395    Cu31    Cu72      3.82972       0   1   0           -0.00574 
    396    Cu31    Al74      2.55179       0   1   0           -1.45686 
    397    Cu32    Cu37      2.69039       0   0   0           -0.33465 
    398    Cu32    Zr38      3.86551       0   0   0           -0.12863 
    399    Cu32    Zr53      2.38091       0   0   0           -2.79472 
    400    Cu32    Cu54      4.08403       0   0   0           -0.01105 
    401    Cu32    Zr55      3.32466       0   0  -1           -0.39227 
    402    Cu32    Al74      3.74856       0   1   0           -0.12660 
    403    Cu33    Al34      2.78366       0   0   0           -0.98669 
    404    Cu33    Cu36      4.10354       0   0   0           -0.00461 
    405    Cu33    Zr38      2.71668       0   0   1           -1.16758 
    406    Cu33    Cu39      2.07857       0   0   0           -1.42539 
    407    Cu33    Zr40      3.53022       0   0   0           -0.22662 
    408    Cu33    Cu44      3.76715       0   0   1           -0.01857 
    409    Cu33    Zr45      4.14733       0   0   0           -0.04980 