
     Program PWSCF v.6.2 (svn rev. 13949:13950) starts on 20May2019 at 19:14:21 

     This program is part of the open-source Quantum ESPRESSO suite
     for quantum simulation of materials; please cite
         "P. Giannozzi et al., J. Phys.:Condens. Matter 21 395502 (2009);
         "P. Giannozzi et al., J. Phys.:Condens. Matter 29 465901 (2017);
          URL http://www.quantum-espresso.org", 
     in publications or presentations arising from this work. More details at
     http://www.quantum-espresso.org/quote

     Parallel version (MPI & OpenMP), running on     192 processor cores
     Number of MPI processes:               192
     Threads/MPI process:                     1

     MPI processes distributed on     8 nodes
     K-points division:     npool     =       8
     R & G space division:  proc/nbgrp/npool/nimage =      24
     Waiting for input...
     Reading input from standard input

     Current dimensions of program PWSCF are:
     Max number of different atomic species (ntypx) = 10
     Max number of k-points (npk) =  40000
     Max angular momentum in pseudopotentials (lmaxx) =  3
               file Al.aryjr-1.0.0-ld1.UPF: wavefunction(s)  3S 3P renormalized
               file Cu.aryjr-1.0.0-ld1.UPF: wavefunction(s)  4S 3P 3D renormalized
               file Zr.aryjr-1.0.0-ld1.UPF: wavefunction(s)  4S 4P renormalized

     Subspace diagonalization in iterative solution of the eigenvalue problem:
     one sub-group per band group will be used
     scalapack distributed-memory algorithm (size of sub-group:  3*  3 procs)

 
     Parallelization info
     --------------------
     sticks:   dense  smooth     PW     G-vecs:    dense   smooth      PW
     Min         956     477    123               108918    38505    5065
     Max         957     478    124               108921    38510    5068
     Sum       22951   11465   2971              2614081   924161  121611
 

     Title: 
     Zr45Cu45Al10                                                               


     bravais-lattice index     =            0
     lattice parameter (alat)  =      25.3679  a.u.
     unit-cell volume          =   11681.2492 (a.u.)^3
     number of atoms/cell      =          100
     number of atomic types    =            3
     number of electrons       =      1425.00
     number of Kohn-Sham states=         1034
     kinetic-energy cutoff     =      70.0000  Ry
     charge density cutoff     =     560.0000  Ry
     convergence threshold     =      1.0E-06
     mixing beta               =       0.4000
     number of iterations used =            8  plain     mixing
     Exchange-correlation      =  SLA  PW   PBX  PBC ( 1  4  3  4 0 0)

     celldm(1)=  25.367915  celldm(2)=   0.000000  celldm(3)=   0.000000
     celldm(4)=   0.000000  celldm(5)=   0.000000  celldm(6)=   0.000000

     crystal axes: (cart. coord. in units of alat)
               a(1) = (   0.894427   0.447214   0.000000 )  
               a(2) = (   0.000000   0.894427   0.000000 )  
               a(3) = (   0.000000   0.000000   0.894427 )  

     reciprocal axes: (cart. coord. in units 2 pi/alat)
               b(1) = (  1.118034  0.000000  0.000000 )  
               b(2) = ( -0.559017  1.118034  0.000000 )  
               b(3) = (  0.000000  0.000000  1.118034 )  


     PseudoPot. # 1 for Al read from file:
     /scratch/rmnvm/ary.junior/UPFs/Al.aryjr-1.0.0-ld1.UPF
     MD5 check sum: 23518be3108914e66f28d0b5ae5ea896
     Pseudo is Projector augmented-wave + core cor, Zval =  3.0
     Generated using "atomic" code by A. Dal Corso  v.5.3.0 svn rev. 11974
     Shape of augmentation charge: PSQ
     Using radial grid of 1135 points,  4 beta functions with: 
                l(1) =   0
                l(2) =   0
                l(3) =   1
                l(4) =   1
     Q(r) pseudized with 0 coefficients 


     PseudoPot. # 2 for Cu read from file:
     /scratch/rmnvm/ary.junior/UPFs/Cu.aryjr-1.0.0-ld1.UPF
     MD5 check sum: 9308548b6d8348cb0f7fa79efd90ef1e
     Pseudo is Projector augmented-wave + core cor, Zval = 19.0
     Generated using "atomic" code by A. Dal Corso  v.5.3.0 svn rev. 11974
     Shape of augmentation charge: PSQ
     Using radial grid of 1199 points,  6 beta functions with: 
                l(1) =   0
                l(2) =   0
                l(3) =   1
                l(4) =   1
                l(5) =   2
                l(6) =   2
     Q(r) pseudized with 0 coefficients 


     PseudoPot. # 3 for Zr read from file:
     /scratch/rmnvm/ary.junior/UPFs/Zr.aryjr-1.0.0-ld1.UPF
     MD5 check sum: 20f111a850f3481eb9ed9a4dbb9cca44
     Pseudo is Projector augmented-wave + core cor, Zval = 12.0
     Generated using "atomic" code by A. Dal Corso  v.5.3.0 svn rev. 11974
     Shape of augmentation charge: PSQ
     Using radial grid of 1225 points,  6 beta functions with: 
                l(1) =   0
                l(2) =   0
                l(3) =   1
                l(4) =   1
                l(5) =   2
                l(6) =   2
     Q(r) pseudized with 0 coefficients 


     atomic species   valence    mass     pseudopotential
        Al             3.00    26.98150     Al( 1.00)
        Cu            19.00    63.54630     Cu( 1.00)
        Zr            12.00    91.22400     Zr( 1.00)

     No symmetry found


                                    s                        frac. trans.

      isym =  1     identity                                     

 cryst.   s( 1) = (     1          0          0      )
                  (     0          1          0      )
                  (     0          0          1      )

 cart.    s( 1) = (  1.0000000  0.0000000  0.0000000 )
                  (  0.0000000  1.0000000  0.0000000 )
                  (  0.0000000  0.0000000  1.0000000 )


   Cartesian axes

     site n.     atom                  positions (alat units)
         1           Cu  tau(   1) = (   0.0411544   0.0897665   0.1339736  )
         2           Cu  tau(   2) = (   0.0239805   0.0691754   0.3273425  )
         3           Al  tau(   3) = (   0.0864643   0.2104873   0.4497287  )
         4           Zr  tau(   4) = (   0.2243062   0.2508663   0.6208479  )
         5           Zr  tau(   5) = (   0.0994988   0.2173838   0.8331723  )
         6           Zr  tau(   6) = (   0.1999769   0.4425335   0.0463224  )
         7           Zr  tau(   7) = (   0.1100628   0.2963434   0.2355644  )
         8           Zr  tau(   8) = (  -0.0091947   0.3563183   0.3853121  )
         9           Zr  tau(   9) = (   0.0581288   0.3525957   0.5992331  )
        10           Cu  tau(  10) = (   0.1937463   0.4249705   0.7301987  )
        11           Cu  tau(  11) = (   0.0813821   0.5478608   0.0790450  )
        12           Cu  tau(  12) = (   0.1640388   0.7314836   0.1711379  )
        13           Zr  tau(  13) = (   0.1968366   0.5622924   0.2483279  )
        14           Al  tau(  14) = (   0.1633734   0.7481915   0.3646902  )
        15           Cu  tau(  15) = (   0.1029056   0.5659014   0.4539245  )
        16           Zr  tau(  16) = (  -0.0013712   0.5398266   0.6293118  )
        17           Cu  tau(  17) = (   0.1390235   0.5535579   0.7905869  )
        18           Cu  tau(  18) = (  -0.0179860   0.5457084   0.8385720  )
        19           Cu  tau(  19) = (   0.1332598   0.9323755   0.0226639  )
        20           Zr  tau(  20) = (   0.1541384   0.9110948   0.2264153  )
        21           Zr  tau(  21) = (   0.1293762   0.9232201   0.5000877  )
        22           Cu  tau(  22) = (   0.1410762   0.7584769   0.5898819  )
        23           Cu  tau(  23) = (   0.1199999   0.9432790   0.7124300  )
        24           Zr  tau(  24) = (   0.1146530   0.7579823   0.7946225  )
        25           Zr  tau(  25) = (   0.2570933   0.2532029   0.1077266  )
        26           Cu  tau(  26) = (   0.4255497   0.2573173   0.0278695  )
        27           Cu  tau(  27) = (   0.4423202   0.3489219   0.1982382  )
        28           Zr  tau(  28) = (   0.2782187   0.2569976   0.3597064  )
        29           Cu  tau(  29) = (   0.4119007   0.3969419   0.5302549  )
        30           Zr  tau(  30) = (   0.3943324   0.1923882   0.5115748  )
        31           Cu  tau(  31) = (   0.2752779   0.1698088   0.8163714  )
        32           Cu  tau(  32) = (   0.3069799   0.3615713   0.8108358  )
        33           Cu  tau(  33) = (   0.3716452   0.6180626   0.1091362  )
        34           Al  tau(  34) = (   0.3294560   0.4529831   0.2273231  )
        35           Zr  tau(  35) = (   0.2403049   0.4454628   0.4457798  )
        36           Cu  tau(  36) = (   0.4388981   0.4727482   0.3695272  )
        37           Cu  tau(  37) = (   0.3464295   0.4745661   0.6500813  )
        38           Zr  tau(  38) = (   0.3967518   0.6350737   0.8034756  )
        39           Cu  tau(  39) = (   0.2485703   0.6788085   0.0374604  )
        40           Zr  tau(  40) = (   0.3536672   0.8321599   0.2607783  )
        41           Cu  tau(  41) = (   0.2958747   0.6756619   0.4205293  )
        42           Cu  tau(  42) = (   0.4243529   0.8063999   0.6473265  )
        43           Zr  tau(  43) = (   0.2418683   0.6276996   0.6159679  )
        44           Cu  tau(  44) = (   0.3267826   0.7982163   0.7931288  )
        45           Zr  tau(  45) = (   0.2947987   0.9137160   0.0629695  )
        46           Cu  tau(  46) = (   0.3514294   1.0388647   0.2218716  )
        47           Cu  tau(  47) = (   0.2867229   0.9537966   0.3739090  )
        48           Cu  tau(  48) = (   0.3006554   0.8460105   0.5031788  )
        49           Zr  tau(  49) = (   0.2964400   0.9368758   0.6863235  )
        50           Al  tau(  50) = (   0.6361193   0.4609095   0.1096308  )
        51           Zr  tau(  51) = (   0.5809018   0.3703993   0.3331849  )
        52           Zr  tau(  52) = (   0.6169893   0.4480790   0.5718851  )
        53           Zr  tau(  53) = (   0.4551069   0.3156921   0.7247526  )
        54           Cu  tau(  54) = (   0.6018690   0.3229911   0.8749323  )
        55           Zr  tau(  55) = (   0.4795239   0.5034588   0.0233356  )
        56           Cu  tau(  56) = (   0.5521934   0.7132891   0.1166235  )
        57           Cu  tau(  57) = (   0.5579768   0.5440546   0.2254958  )
        58           Cu  tau(  58) = (   0.6221913   0.5881302   0.4147325  )
        59           Zr  tau(  59) = (   0.4564521   0.6764808   0.2937728  )
        60           Zr  tau(  60) = (   0.4551463   0.6243205   0.5128136  )
        61           Cu  tau(  61) = (   0.5346787   0.5566579   0.6876222  )
        62           Al  tau(  62) = (   0.6204999   0.7074839   0.8149797  )
        63           Zr  tau(  63) = (   0.4649215   0.8322037   0.0631993  )
        64           Cu  tau(  64) = (   0.5559697   0.9056160   0.2596316  )
        65           Zr  tau(  65) = (   0.4871337   0.8650140   0.4635172  )
        66           Cu  tau(  66) = (   0.6257010   0.7972061   0.4778093  )
        67           Cu  tau(  67) = (   0.5700730   0.7679941   0.6585891  )
        68           Zr  tau(  68) = (   0.5792480   0.9293130   0.7868196  )
        69           Zr  tau(  69) = (   0.5384452   1.0879947   0.1498452  )
        70           Cu  tau(  70) = (   0.4950019   1.0267903   0.3468553  )
        71           Al  tau(  71) = (   0.5899364   1.1210737   0.5089648  )
        72           Cu  tau(  72) = (   0.4975063   1.0117175   0.6453605  )
        73           Zr  tau(  73) = (   0.6697650   1.1927983   0.6948009  )
        74           Al  tau(  74) = (   0.4605513   1.0234376   0.8283460  )
        75           Cu  tau(  75) = (   0.8237683   0.6087082   0.0742813  )
        76           Zr  tau(  76) = (   0.7758118   0.6017831   0.2659642  )
        77           Zr  tau(  77) = (   0.7792956   0.3898222   0.4591569  )
        78           Zr  tau(  78) = (   0.8679826   0.5537139   0.6436754  )
        79           Zr  tau(  79) = (   0.6855149   0.5348402   0.7981689  )
        80           Zr  tau(  80) = (   0.8255223   0.4176537   0.8495761  )
        81           Cu  tau(  81) = (   0.7058649   0.6898659   0.0853194  )
        82           Al  tau(  82) = (   0.8669200   0.8234150   0.1613305  )
        83           Zr  tau(  83) = (   0.6854738   0.7841644   0.2809968  )
        84           Cu  tau(  84) = (   0.7804575   0.5923943   0.4698650  )
        85           Zr  tau(  85) = (   0.7232848   0.7202335   0.6040720  )
        86           Zr  tau(  86) = (   0.8487041   0.7729202   0.8128626  )
        87           Zr  tau(  87) = (   0.7190560   0.8972898   0.0773662  )
        88           Zr  tau(  88) = (   0.8771567   1.0158265   0.2798081  )
        89           Cu  tau(  89) = (   0.7183529   1.0537797   0.1915666  )
        90           Zr  tau(  90) = (   0.6872948   1.0010505   0.5868149  )
        91           Cu  tau(  91) = (   0.7918981   0.9048593   0.4686199  )
        92           Cu  tau(  92) = (   0.7281559   0.8836766   0.7518609  )
        93           Zr  tau(  93) = (   0.8865938   1.1657830   0.0840672  )
        94           Cu  tau(  94) = (   0.6802450   1.0968803   0.0080382  )
        95           Zr  tau(  95) = (   0.7599841   1.2647836   0.2012935  )
        96           Zr  tau(  96) = (   0.7003159   1.0450528   0.3792183  )
        97           Cu  tau(  97) = (   0.8927859   1.2193292   0.3269140  )
        98           Cu  tau(  98) = (   0.8898790   1.1323068   0.4820274  )
        99           Al  tau(  99) = (   0.8664817   1.2215103   0.6313976  )
       100           Al  tau( 100) = (   0.7857310   1.0869759   0.7708809  )

   Crystallographic axes

     site n.     atom                  positions (cryst. coord.)
         1           Cu  tau(   1) = (  0.0460120  0.0773560  0.1497870  )
         2           Cu  tau(   2) = (  0.0268110  0.0639350  0.3659800  )
         3           Al  tau(   3) = (  0.0966700  0.1869970  0.5028120  )
         4           Zr  tau(   4) = (  0.2507820  0.1550860  0.6941290  )
         5           Zr  tau(   5) = (  0.1112430  0.1874210  0.9315150  )
         6           Zr  tau(   6) = (  0.2235810  0.3829770  0.0517900  )
         7           Zr  tau(   7) = (  0.1230540  0.2697950  0.2633690  )
         8           Zr  tau(   8) = ( -0.0102800  0.4035160  0.4307920  )
         9           Zr  tau(   9) = (  0.0649900  0.3617190  0.6699630  )
        10           Cu  tau(  10) = (  0.2166150  0.3668240  0.8163870  )
        11           Cu  tau(  11) = (  0.0909880  0.5670330  0.0883750  )
        12           Cu  tau(  12) = (  0.1834010  0.7261230  0.1913380  )
        13           Zr  tau(  13) = (  0.2200700  0.5186270  0.2776390  )
        14           Al  tau(  14) = (  0.1826570  0.7451750  0.4077360  )
        15           Cu  tau(  15) = (  0.1150520  0.5751710  0.5075030  )
        16           Zr  tau(  16) = ( -0.0015330  0.6043110  0.7035920  )
        17           Cu  tau(  17) = (  0.1554330  0.5411800  0.8839030  )
        18           Cu  tau(  18) = ( -0.0201090  0.6201750  0.9375520  )
        19           Cu  tau(  19) = (  0.1489890  0.9679330  0.0253390  )
        20           Zr  tau(  20) = (  0.1723320  0.9324690  0.2531400  )
        21           Zr  tau(  21) = (  0.1446470  0.9598680  0.5591150  )
        22           Cu  tau(  22) = (  0.1577280  0.7691390  0.6595080  )
        23           Cu  tau(  23) = (  0.1341640  0.9875360  0.7965210  )
        24           Zr  tau(  24) = (  0.1281860  0.7833570  0.8884150  )
        25           Zr  tau(  25) = (  0.2874390  0.1393700  0.1204420  )
        26           Cu  tau(  26) = (  0.4757790  0.0498000  0.0311590  )
        27           Cu  tau(  27) = (  0.4945290  0.1428420  0.2216370  )
        28           Zr  tau(  28) = (  0.3110580  0.1318030  0.4021640  )
        29           Cu  tau(  29) = (  0.4605190  0.2135350  0.5928430  )
        30           Zr  tau(  30) = (  0.4408770 -0.0053420  0.5719580  )
        31           Cu  tau(  31) = (  0.3077700  0.0359670  0.9127310  )
        32           Cu  tau(  32) = (  0.3432140  0.2326420  0.9065420  )
        33           Cu  tau(  33) = (  0.4155120  0.4832590  0.1220180  )
        34           Al  tau(  34) = (  0.3683430  0.3222790  0.2541550  )
        35           Zr  tau(  35) = (  0.2686690  0.3637080  0.4983970  )
        36           Cu  tau(  36) = (  0.4907030  0.2831970  0.4131440  )
        37           Cu  tau(  37) = (  0.3873200  0.3369210  0.7268130  )
        38           Zr  tau(  38) = (  0.4435820  0.4882430  0.8983130  )
        39           Cu  tau(  39) = (  0.2779100  0.6199760  0.0418820  )
        40           Zr  tau(  40) = (  0.3954120  0.7326770  0.2915590  )
        41           Cu  tau(  41) = (  0.3307980  0.5900140  0.4701660  )
        42           Cu  tau(  42) = (  0.4744410  0.6643620  0.7237330  )
        43           Zr  tau(  43) = (  0.2704170  0.5665810  0.6886730  )
        44           Cu  tau(  44) = (  0.3653540  0.7097560  0.8867450  )
        45           Zr  tau(  45) = (  0.3295950  0.8567680  0.0704020  )
        46           Cu  tau(  46) = (  0.3929100  0.9650310  0.2480600  )
        47           Cu  tau(  47) = (  0.3205660  0.9060940  0.4180430  )
        48           Cu  tau(  48) = (  0.3361430  0.7777970  0.5625710  )
        49           Zr  tau(  49) = (  0.3314300  0.8817440  0.7673330  )
        50           Al  tau(  50) = (  0.7112030  0.1597110  0.1225710  )
        51           Zr  tau(  51) = (  0.6494680  0.0893850  0.3725120  )
        52           Zr  tau(  52) = (  0.6898150  0.1560600  0.6393870  )
        53           Zr  tau(  53) = (  0.5088250  0.0985420  0.8102980  )
        54           Cu  tau(  54) = (  0.6729100  0.0246600  0.9782040  )
        55           Zr  tau(  55) = (  0.5361240  0.2948220  0.0260900  )
        56           Cu  tau(  56) = (  0.6173710  0.4887960  0.1303890  )
        57           Cu  tau(  57) = (  0.6238370  0.2963530  0.2521120  )
        58           Cu  tau(  58) = (  0.6956310  0.3097340  0.4636850  )
        59           Zr  tau(  59) = (  0.5103290  0.5011640  0.3284480  )
        60           Zr  tau(  60) = (  0.5088690  0.4435770  0.5733430  )
        61           Cu  tau(  61) = (  0.5977890  0.3234680  0.7687850  )
        62           Al  tau(  62) = (  0.6937400  0.4441210  0.9111750  )
        63           Zr  tau(  63) = (  0.5197980  0.6705330  0.0706590  )
        64           Cu  tau(  64) = (  0.6215930  0.7017130  0.2902770  )
        65           Zr  tau(  65) = (  0.5446320  0.6947990  0.5182280  )
        66           Cu  tau(  66) = (  0.6995550  0.5415260  0.5342070  )
        67           Cu  tau(  67) = (  0.6373610  0.5399630  0.7363250  )
        68           Zr  tau(  68) = (  0.6476190  0.7151940  0.8796910  )
        69           Zr  tau(  69) = (  0.6020000  0.9154150  0.1675320  )
        70           Cu  tau(  70) = (  0.5534290  0.8712720  0.3877960  )
        71           Al  tau(  71) = (  0.6595690  0.9236140  0.5690400  )
        72           Cu  tau(  72) = (  0.5562290  0.8530200  0.7215350  )
        73           Zr  tau(  73) = (  0.7488200  0.9591790  0.7768110  )
        74           Al  tau(  74) = (  0.5149120  0.8867820  0.9261190  )
        75           Cu  tau(  75) = (  0.9210010  0.2200560  0.0830490  )
        76           Zr  tau(  76) = (  0.8673840  0.2391220  0.2973570  )
        77           Zr  tau(  77) = (  0.8712790  0.0001950  0.5133530  )
        78           Zr  tau(  78) = (  0.9704340  0.1338540  0.7196510  )
        79           Zr  tau(  79) = (  0.7664290  0.2147550  0.8923800  )
        80           Zr  tau(  80) = (  0.9229620  0.0054700  0.9498550  )
        81           Cu  tau(  81) = (  0.7891810  0.3767030  0.0953900  )
        82           Al  tau(  82) = (  0.9692460  0.4359830  0.1803730  )
        83           Zr  tau(  83) = (  0.7663830  0.4935310  0.3141640  )
        84           Cu  tau(  84) = (  0.8725780  0.2260280  0.5253250  )
        85           Zr  tau(  85) = (  0.8086570  0.4009170  0.6753730  )
        86           Zr  tau(  86) = (  0.9488800  0.3897110  0.9088080  )
        87           Zr  tau(  87) = (  0.8039290  0.6012360  0.0864980  )
        88           Zr  tau(  88) = (  0.9806910  0.6453830  0.3128350  )
        89           Cu  tau(  89) = (  0.8031430  0.7765900  0.2141780  )
        90           Zr  tau(  90) = (  0.7684190  0.7349990  0.6560790  )
        91           Cu  tau(  91) = (  0.8853690  0.5689790  0.5239330  )
        92           Cu  tau(  92) = (  0.8141030  0.5809290  0.8406060  )
        93           Zr  tau(  93) = (  0.9912420  0.8077640  0.0939900  )
        94           Cu  tau(  94) = (  0.7605370  0.8460810  0.0089870  )
        95           Zr  tau(  95) = (  0.8496880  0.9892270  0.2250530  )
        96           Zr  tau(  96) = (  0.7829770  0.7769160  0.4239790  )
        97           Cu  tau(  97) = (  0.9981650  0.8641690  0.3655010  )
        98           Cu  tau(  98) = (  0.9949150  0.7685000  0.5389230  )
        99           Al  tau(  99) = (  0.9687560  0.8813120  0.7059240  )
       100           Al  tau( 100) = (  0.8784740  0.7760390  0.8618710  )

     number of k points=     8  Fermi-Dirac smearing, width (Ry)=  0.0080
                       cart. coord. in units 2pi/alat
        k(    1) = (   0.1397542   0.2795085   0.2795085), wk =   0.2500000
        k(    2) = (   0.1397542   0.2795085  -0.2795085), wk =   0.2500000
        k(    3) = (   0.4192627  -0.2795085   0.2795085), wk =   0.2500000
        k(    4) = (   0.4192627  -0.2795085  -0.2795085), wk =   0.2500000
        k(    5) = (  -0.4192627   0.2795085   0.2795085), wk =   0.2500000
        k(    6) = (  -0.4192627   0.2795085  -0.2795085), wk =   0.2500000
        k(    7) = (  -0.1397542  -0.2795085   0.2795085), wk =   0.2500000
        k(    8) = (  -0.1397542  -0.2795085  -0.2795085), wk =   0.2500000

                       cryst. coord.
        k(    1) = (   0.2500000   0.2500000   0.2500000), wk =   0.2500000
        k(    2) = (   0.2500000   0.2500000  -0.2500000), wk =   0.2500000
        k(    3) = (   0.2500000  -0.2500000   0.2500000), wk =   0.2500000
        k(    4) = (   0.2500000  -0.2500000  -0.2500000), wk =   0.2500000
        k(    5) = (  -0.2500000   0.2500000   0.2500000), wk =   0.2500000
        k(    6) = (  -0.2500000   0.2500000  -0.2500000), wk =   0.2500000
        k(    7) = (  -0.2500000  -0.2500000   0.2500000), wk =   0.2500000
        k(    8) = (  -0.2500000  -0.2500000  -0.2500000), wk =   0.2500000

     Dense  grid:  2614081 G-vectors     FFT dimensions: ( 192, 180, 180)

     Smooth grid:   924161 G-vectors     FFT dimensions: ( 135, 125, 125)

     Dynamical RAM for                 wfc:      75.94 MB

     Dynamical RAM for     wfc (w. buffer):      75.94 MB

     Dynamical RAM for           str. fact:       4.99 MB

     Dynamical RAM for           local pot:       0.00 MB

     Dynamical RAM for          nlocal pot:     124.85 MB

     Dynamical RAM for                qrad:      22.97 MB

     Dynamical RAM for          rho,v,vnew:      11.31 MB

     Dynamical RAM for               rhoin:       3.77 MB

     Dynamical RAM for            rho*nmix:      26.59 MB

     Dynamical RAM for           G-vectors:       6.53 MB

     Dynamical RAM for          h,s,v(r/c):      86.92 MB

     Dynamical RAM for          <psi|beta>:      26.82 MB

     Dynamical RAM for                 psi:     303.75 MB

     Dynamical RAM for                hpsi:     303.75 MB

     Dynamical RAM for                spsi:     303.75 MB

     Dynamical RAM for      wfcinit/wfcrot:     184.36 MB

     Dynamical RAM for           addusdens:     383.92 MB

     Dynamical RAM for          addusforce:     805.62 MB

     Estimated static dynamical RAM per process >     294.14 MB

     Estimated max dynamical RAM per process >       1.29 GB

     Estimated total dynamical RAM >     247.34 GB

     Initial potential from superposition of free atoms

     starting charge 1424.86784, renormalised to 1425.00000
     Starting wfc are 1075 randomized atomic wfcs
     Checking if some PAW data can be deallocated... 
       PAW data deallocated on  174 nodes for type:  1
       PAW data deallocated on  105 nodes for type:  2
       PAW data deallocated on  105 nodes for type:  3

     total cpu time spent up to now is       39.1 secs

     Self-consistent Calculation

     iteration #  1     ecut=    70.00 Ry     beta= 0.40
     Davidson diagonalization with overlap
     ethr =  1.00E-02,  avg # of iterations =  4.0

     total cpu time spent up to now is      239.7 secs

     total energy              =  -35997.27998414 Ry
     Harris-Foulkes estimate   =  -36137.05579551 Ry
     estimated scf accuracy    <     226.98915845 Ry

     iteration #  2     ecut=    70.00 Ry     beta= 0.40
     Davidson diagonalization with overlap
     ethr =  1.00E-02,  avg # of iterations =  3.0

     total cpu time spent up to now is      445.6 secs

     total energy              =  -36041.02611886 Ry
     Harris-Foulkes estimate   =  -36291.03120907 Ry
     estimated scf accuracy    <    1210.98067594 Ry

     iteration #  3     ecut=    70.00 Ry     beta= 0.40
     Davidson diagonalization with overlap
     ethr =  1.00E-02,  avg # of iterations =  3.0

     total cpu time spent up to now is      608.7 secs

     total energy              =  -36097.83057727 Ry
     Harris-Foulkes estimate   =  -36187.94367578 Ry
     estimated scf accuracy    <     642.04382508 Ry

     iteration #  4     ecut=    70.00 Ry     beta= 0.40
     Davidson diagonalization with overlap
     ethr =  1.00E-02,  avg # of iterations =  3.0

     total cpu time spent up to now is      733.7 secs

     total energy              =  -36123.56379716 Ry
     Harris-Foulkes estimate   =  -36149.55802853 Ry
     estimated scf accuracy    <     242.84537342 Ry

     iteration #  5     ecut=    70.00 Ry     beta= 0.40
     Davidson diagonalization with overlap
     ethr =  1.00E-02,  avg # of iterations =  2.0

     total cpu time spent up to now is      840.3 secs

     total energy              =  -36128.71858176 Ry
     Harris-Foulkes estimate   =  -36137.02665729 Ry
     estimated scf accuracy    <      85.97590098 Ry

     iteration #  6     ecut=    70.00 Ry     beta= 0.40
     Davidson diagonalization with overlap
     ethr =  6.03E-03,  avg # of iterations =  1.0

     total cpu time spent up to now is      936.8 secs

     total energy              =  -36128.84291705 Ry
     Harris-Foulkes estimate   =  -36131.92188603 Ry
     estimated scf accuracy    <      43.85079430 Ry

     iteration #  7     ecut=    70.00 Ry     beta= 0.40
     Davidson diagonalization with overlap
     ethr =  3.08E-03,  avg # of iterations =  1.0

     total cpu time spent up to now is     1033.3 secs

     total energy              =  -36127.49319430 Ry
     Harris-Foulkes estimate   =  -36130.03106502 Ry
     estimated scf accuracy    <      35.58088583 Ry

     iteration #  8     ecut=    70.00 Ry     beta= 0.40
     Davidson diagonalization with overlap
     ethr =  2.50E-03,  avg # of iterations =  1.0

     total cpu time spent up to now is     1130.1 secs

     total energy              =  -36125.81914713 Ry
     Harris-Foulkes estimate   =  -36128.29556028 Ry
     estimated scf accuracy    <      21.22413120 Ry

     iteration #  9     ecut=    70.00 Ry     beta= 0.40
     Davidson diagonalization with overlap
     ethr =  1.49E-03,  avg # of iterations =  1.0

     total cpu time spent up to now is     1227.2 secs

     total energy              =  -36125.48230399 Ry
     Harris-Foulkes estimate   =  -36126.56302009 Ry
     estimated scf accuracy    <       9.92503294 Ry

     iteration # 10     ecut=    70.00 Ry     beta= 0.40
     Davidson diagonalization with overlap
     ethr =  6.96E-04,  avg # of iterations =  1.2

     total cpu time spent up to now is     1330.9 secs

     total energy              =  -36124.24343757 Ry
     Harris-Foulkes estimate   =  -36126.01902808 Ry
     estimated scf accuracy    <       7.20809374 Ry

     iteration # 11     ecut=    70.00 Ry     beta= 0.40
     Davidson diagonalization with overlap
     ethr =  5.06E-04,  avg # of iterations =  4.2

     total cpu time spent up to now is     1476.4 secs

     total energy              =  -36124.21667077 Ry
     Harris-Foulkes estimate   =  -36126.43387447 Ry
     estimated scf accuracy    <      18.03026463 Ry

     iteration # 12     ecut=    70.00 Ry     beta= 0.40
     Davidson diagonalization with overlap
     ethr =  5.06E-04,  avg # of iterations =  2.0

     total cpu time spent up to now is     1582.7 secs

     total energy              =  -36125.05833345 Ry
     Harris-Foulkes estimate   =  -36125.84447710 Ry
     estimated scf accuracy    <       7.42867628 Ry

     iteration # 13     ecut=    70.00 Ry     beta= 0.40
     Davidson diagonalization with overlap
     ethr =  5.06E-04,  avg # of iterations =  1.0

     total cpu time spent up to now is     1679.8 secs

     total energy              =  -36125.36608047 Ry
     Harris-Foulkes estimate   =  -36125.60771147 Ry
     estimated scf accuracy    <       2.46578526 Ry

     iteration # 14     ecut=    70.00 Ry     beta= 0.40
     Davidson diagonalization with overlap
     ethr =  1.73E-04,  avg # of iterations =  1.0

     total cpu time spent up to now is     1776.8 secs

     total energy              =  -36125.43686861 Ry
     Harris-Foulkes estimate   =  -36125.53268473 Ry
     estimated scf accuracy    <       0.91438077 Ry

     iteration # 15     ecut=    70.00 Ry     beta= 0.40
     Davidson diagonalization with overlap
     ethr =  6.42E-05,  avg # of iterations =  1.0

     total cpu time spent up to now is     1873.7 secs

     total energy              =  -36125.46914796 Ry
     Harris-Foulkes estimate   =  -36125.50001833 Ry
     estimated scf accuracy    <       0.34541474 Ry

     iteration # 16     ecut=    70.00 Ry     beta= 0.40
     Davidson diagonalization with overlap
     ethr =  2.42E-05,  avg # of iterations =  8.6

     total cpu time spent up to now is     2071.0 secs

     total energy              =  -36125.46111458 Ry
     Harris-Foulkes estimate   =  -36125.50988350 Ry
     estimated scf accuracy    <       0.62330984 Ry

     iteration # 17     ecut=    70.00 Ry     beta= 0.40
     Davidson diagonalization with overlap
     ethr =  2.42E-05,  avg # of iterations =  1.6

     total cpu time spent up to now is     2173.9 secs

     total energy              =  -36125.47381043 Ry
     Harris-Foulkes estimate   =  -36125.49449326 Ry
     estimated scf accuracy    <       0.20841736 Ry

     iteration # 18     ecut=    70.00 Ry     beta= 0.40
     Davidson diagonalization with overlap
     ethr =  1.46E-05,  avg # of iterations =  2.0

     total cpu time spent up to now is     2280.1 secs

     total energy              =  -36125.47330105 Ry
     Harris-Foulkes estimate   =  -36125.49490641 Ry
     estimated scf accuracy    <       0.29246290 Ry

     iteration # 19     ecut=    70.00 Ry     beta= 0.40
     Davidson diagonalization with overlap
     ethr =  1.46E-05,  avg # of iterations =  1.0

     total cpu time spent up to now is     2376.6 secs

     total energy              =  -36125.48112477 Ry
     Harris-Foulkes estimate   =  -36125.48752348 Ry
     estimated scf accuracy    <       0.06023488 Ry

     iteration # 20     ecut=    70.00 Ry     beta= 0.40
     Davidson diagonalization with overlap
     ethr =  4.23E-06,  avg # of iterations =  2.0

     total cpu time spent up to now is     2482.9 secs

     total energy              =  -36125.48205968 Ry
     Harris-Foulkes estimate   =  -36125.48631331 Ry
     estimated scf accuracy    <       0.03303641 Ry

     iteration # 21     ecut=    70.00 Ry     beta= 0.40
     Davidson diagonalization with overlap
     ethr =  2.32E-06,  avg # of iterations =  3.4

     total cpu time spent up to now is     2632.3 secs

     total energy              =  -36125.48146267 Ry
     Harris-Foulkes estimate   =  -36125.48754348 Ry
     estimated scf accuracy    <       0.06032319 Ry

     iteration # 22     ecut=    70.00 Ry     beta= 0.40
     Davidson diagonalization with overlap
     ethr =  2.32E-06,  avg # of iterations =  2.0

     total cpu time spent up to now is     2738.1 secs

     total energy              =  -36125.48277215 Ry
     Harris-Foulkes estimate   =  -36125.48608247 Ry
     estimated scf accuracy    <       0.02981796 Ry

     iteration # 23     ecut=    70.00 Ry     beta= 0.40
     Davidson diagonalization with overlap
     ethr =  2.09E-06,  avg # of iterations =  1.6

     total cpu time spent up to now is     2842.0 secs

     total energy              =  -36125.48267811 Ry
     Harris-Foulkes estimate   =  -36125.48632588 Ry
     estimated scf accuracy    <       0.03862937 Ry

     iteration # 24     ecut=    70.00 Ry     beta= 0.40
     Davidson diagonalization with overlap
     ethr =  2.09E-06,  avg # of iterations =  1.2

     total cpu time spent up to now is     2945.4 secs

     total energy              =  -36125.48305765 Ry
     Harris-Foulkes estimate   =  -36125.48606640 Ry
     estimated scf accuracy    <       0.03265116 Ry

     iteration # 25     ecut=    70.00 Ry     beta= 0.40
     Davidson diagonalization with overlap
     ethr =  2.09E-06,  avg # of iterations =  1.0

     total cpu time spent up to now is     3042.3 secs

     total energy              =  -36125.48341616 Ry
     Harris-Foulkes estimate   =  -36125.48591919 Ry
     estimated scf accuracy    <       0.03114244 Ry

     iteration # 26     ecut=    70.00 Ry     beta= 0.40
     Davidson diagonalization with overlap
     ethr =  2.09E-06,  avg # of iterations =  1.0

     total cpu time spent up to now is     3138.6 secs

     total energy              =  -36125.48418734 Ry
     Harris-Foulkes estimate   =  -36125.48523838 Ry
     estimated scf accuracy    <       0.01223691 Ry

     iteration # 27     ecut=    70.00 Ry     beta= 0.40
     Davidson diagonalization with overlap
     ethr =  8.59E-07,  avg # of iterations =  1.0

     total cpu time spent up to now is     3235.3 secs

     total energy              =  -36125.48449558 Ry
     Harris-Foulkes estimate   =  -36125.48501844 Ry
     estimated scf accuracy    <       0.00587460 Ry

     iteration # 28     ecut=    70.00 Ry     beta= 0.40
     Davidson diagonalization with overlap
     ethr =  4.12E-07,  avg # of iterations =  1.0

     total cpu time spent up to now is     3331.9 secs

     total energy              =  -36125.48455624 Ry
     Harris-Foulkes estimate   =  -36125.48497415 Ry
     estimated scf accuracy    <       0.00540020 Ry

     iteration # 29     ecut=    70.00 Ry     beta= 0.40
     Davidson diagonalization with overlap
     ethr =  3.79E-07,  avg # of iterations =  1.0

     total cpu time spent up to now is     3428.1 secs

     total energy              =  -36125.48469814 Ry
     Harris-Foulkes estimate   =  -36125.48486607 Ry
     estimated scf accuracy    <       0.00190914 Ry

     iteration # 30     ecut=    70.00 Ry     beta= 0.40
     Davidson diagonalization with overlap
     ethr =  1.34E-07,  avg # of iterations =  1.0

     total cpu time spent up to now is     3524.5 secs

     total energy              =  -36125.48476114 Ry
     Harris-Foulkes estimate   =  -36125.48482984 Ry
     estimated scf accuracy    <       0.00069072 Ry

     iteration # 31     ecut=    70.00 Ry     beta= 0.40
     Davidson diagonalization with overlap
     ethr =  4.85E-08,  avg # of iterations =  1.0

     total cpu time spent up to now is     3621.1 secs

     total energy              =  -36125.48476462 Ry
     Harris-Foulkes estimate   =  -36125.48483704 Ry
     estimated scf accuracy    <       0.00064237 Ry

     iteration # 32     ecut=    70.00 Ry     beta= 0.40
     Davidson diagonalization with overlap
     ethr =  4.51E-08,  avg # of iterations =  1.0

     total cpu time spent up to now is     3717.5 secs

     total energy              =  -36125.48478369 Ry
     Harris-Foulkes estimate   =  -36125.48482001 Ry
     estimated scf accuracy    <       0.00026884 Ry

     iteration # 33     ecut=    70.00 Ry     beta= 0.40
     Davidson diagonalization with overlap
     ethr =  1.89E-08,  avg # of iterations =  1.0

     total cpu time spent up to now is     3813.7 secs

     total energy              =  -36125.48477091 Ry
     Harris-Foulkes estimate   =  -36125.48483682 Ry
     estimated scf accuracy    <       0.00075639 Ry

     iteration # 34     ecut=    70.00 Ry     beta= 0.40
     Davidson diagonalization with overlap
     ethr =  1.89E-08,  avg # of iterations =  1.0

     total cpu time spent up to now is     3910.0 secs

     total energy              =  -36125.48477267 Ry
     Harris-Foulkes estimate   =  -36125.48483595 Ry
     estimated scf accuracy    <       0.00070257 Ry

     iteration # 35     ecut=    70.00 Ry     beta= 0.40
     Davidson diagonalization with overlap
     ethr =  1.89E-08,  avg # of iterations =  1.0

     total cpu time spent up to now is     4006.7 secs

     total energy              =  -36125.48477145 Ry
     Harris-Foulkes estimate   =  -36125.48483961 Ry
     estimated scf accuracy    <       0.00081998 Ry

     iteration # 36     ecut=    70.00 Ry     beta= 0.40
     Davidson diagonalization with overlap
     ethr =  1.89E-08,  avg # of iterations =  1.0

     total cpu time spent up to now is     4103.7 secs

     total energy              =  -36125.48478611 Ry
     Harris-Foulkes estimate   =  -36125.48482881 Ry
     estimated scf accuracy    <       0.00052742 Ry

     iteration # 37     ecut=    70.00 Ry     beta= 0.40
     Davidson diagonalization with overlap
     ethr =  1.89E-08,  avg # of iterations =  1.0

     total cpu time spent up to now is     4200.0 secs

     total energy              =  -36125.48479726 Ry
     Harris-Foulkes estimate   =  -36125.48482086 Ry
     estimated scf accuracy    <       0.00027946 Ry

     iteration # 38     ecut=    70.00 Ry     beta= 0.40
     Davidson diagonalization with overlap
     ethr =  1.89E-08,  avg # of iterations =  1.0

     total cpu time spent up to now is     4295.9 secs

     total energy              =  -36125.48480166 Ry
     Harris-Foulkes estimate   =  -36125.48481659 Ry
     estimated scf accuracy    <       0.00017762 Ry

     iteration # 39     ecut=    70.00 Ry     beta= 0.40
     Davidson diagonalization with overlap
     ethr =  1.25E-08,  avg # of iterations =  1.0

     total cpu time spent up to now is     4391.9 secs

     total energy              =  -36125.48480405 Ry
     Harris-Foulkes estimate   =  -36125.48481553 Ry
     estimated scf accuracy    <       0.00014902 Ry

     iteration # 40     ecut=    70.00 Ry     beta= 0.40
     Davidson diagonalization with overlap
     ethr =  1.05E-08,  avg # of iterations =  1.0

     total cpu time spent up to now is     4487.9 secs

     total energy              =  -36125.48480882 Ry
     Harris-Foulkes estimate   =  -36125.48481251 Ry
     estimated scf accuracy    <       0.00004082 Ry

     iteration # 41     ecut=    70.00 Ry     beta= 0.40
     Davidson diagonalization with overlap
     ethr =  2.86E-09,  avg # of iterations =  1.0

     total cpu time spent up to now is     4584.1 secs

     total energy              =  -36125.48480964 Ry
     Harris-Foulkes estimate   =  -36125.48481208 Ry
     estimated scf accuracy    <       0.00002201 Ry

     iteration # 42     ecut=    70.00 Ry     beta= 0.40
     Davidson diagonalization with overlap
     ethr =  1.54E-09,  avg # of iterations =  1.0

     total cpu time spent up to now is     4680.3 secs

     total energy              =  -36125.48481045 Ry
     Harris-Foulkes estimate   =  -36125.48481164 Ry
     estimated scf accuracy    <       0.00001170 Ry

     iteration # 43     ecut=    70.00 Ry     beta= 0.40
     Davidson diagonalization with overlap
     ethr =  8.21E-10,  avg # of iterations =  1.0

     total cpu time spent up to now is     4776.2 secs

     total energy              =  -36125.48481048 Ry
     Harris-Foulkes estimate   =  -36125.48481196 Ry
     estimated scf accuracy    <       0.00001788 Ry

     iteration # 44     ecut=    70.00 Ry     beta= 0.40
     Davidson diagonalization with overlap
     ethr =  8.21E-10,  avg # of iterations =  1.0

     total cpu time spent up to now is     4872.1 secs

     total energy              =  -36125.48481071 Ry
     Harris-Foulkes estimate   =  -36125.48481196 Ry
     estimated scf accuracy    <       0.00001415 Ry

     iteration # 45     ecut=    70.00 Ry     beta= 0.40
     Davidson diagonalization with overlap
     ethr =  8.21E-10,  avg # of iterations =  1.0

     total cpu time spent up to now is     4968.0 secs

     total energy              =  -36125.48481072 Ry
     Harris-Foulkes estimate   =  -36125.48481199 Ry
     estimated scf accuracy    <       0.00001372 Ry

     iteration # 46     ecut=    70.00 Ry     beta= 0.40
     Davidson diagonalization with overlap
     ethr =  8.21E-10,  avg # of iterations =  1.0

     total cpu time spent up to now is     5063.8 secs

     total energy              =  -36125.48481057 Ry
     Harris-Foulkes estimate   =  -36125.48481221 Ry
     estimated scf accuracy    <       0.00002092 Ry

     iteration # 47     ecut=    70.00 Ry     beta= 0.40
     Davidson diagonalization with overlap
     ethr =  8.21E-10,  avg # of iterations =  1.0

     total cpu time spent up to now is     5159.7 secs

     total energy              =  -36125.48481088 Ry
     Harris-Foulkes estimate   =  -36125.48481200 Ry
     estimated scf accuracy    <       0.00001324 Ry

     iteration # 48     ecut=    70.00 Ry     beta= 0.40
     Davidson diagonalization with overlap
     ethr =  8.21E-10,  avg # of iterations =  1.0

     total cpu time spent up to now is     5255.7 secs

     total energy              =  -36125.48481111 Ry
     Harris-Foulkes estimate   =  -36125.48481182 Ry
     estimated scf accuracy    <       0.00000889 Ry

     iteration # 49     ecut=    70.00 Ry     beta= 0.40
     Davidson diagonalization with overlap
     ethr =  6.24E-10,  avg # of iterations =  1.0

     total cpu time spent up to now is     5351.0 secs

     total energy              =  -36125.48481110 Ry
     Harris-Foulkes estimate   =  -36125.48481188 Ry
     estimated scf accuracy    <       0.00001028 Ry

     iteration # 50     ecut=    70.00 Ry     beta= 0.40
     Davidson diagonalization with overlap
     ethr =  6.24E-10,  avg # of iterations =  1.0

     total cpu time spent up to now is     5446.9 secs

     total energy              =  -36125.48481137 Ry
     Harris-Foulkes estimate   =  -36125.48481171 Ry
     estimated scf accuracy    <       0.00000389 Ry

     iteration # 51     ecut=    70.00 Ry     beta= 0.40
     Davidson diagonalization with overlap
     ethr =  2.73E-10,  avg # of iterations =  1.0

     total cpu time spent up to now is     5542.7 secs

     total energy              =  -36125.48481147 Ry
     Harris-Foulkes estimate   =  -36125.48481163 Ry
     estimated scf accuracy    <       0.00000175 Ry

     iteration # 52     ecut=    70.00 Ry     beta= 0.40
     Davidson diagonalization with overlap
     ethr =  1.23E-10,  avg # of iterations =  1.0

     total cpu time spent up to now is     5638.4 secs

     End of self-consistent calculation

          k = 0.1398 0.2795 0.2795 (115520 PWs)   bands (ev):

   -99.9639 -99.7888 -99.7055 -99.6151 -99.5571 -99.5373 -99.5163 -99.4950
   -99.4872 -99.4131 -99.3901 -99.3740 -99.3447 -99.3199 -99.2987 -99.2721
   -99.1956 -99.1909 -99.1815 -99.1738 -99.1651 -99.1560 -99.1437 -99.1038
   -99.0899 -99.0445 -99.0251 -99.0128 -99.0023 -98.9949 -98.9906 -98.9808
   -98.9528 -98.9300 -98.9282 -98.8726 -98.8684 -98.8592 -98.8556 -98.8480
   -98.8452 -98.7772 -98.7769 -98.6350 -98.6300 -57.7178 -57.4472 -57.3863
   -57.2269 -57.2195 -57.1977 -57.1618 -57.1425 -57.0962 -57.0897 -57.0397
   -57.0256 -57.0109 -56.9357 -56.9185 -56.9144 -56.9059 -56.8983 -56.8926
   -56.8871 -56.8834 -56.8516 -56.8194 -56.8116 -56.8076 -56.7923 -56.7809
   -56.7747 -56.7638 -56.7302 -56.7284 -56.7160 -56.7150 -56.7128 -56.7044
   -56.6984 -56.6797 -56.6765 -56.6563 -56.6484 -56.6482 -56.6367 -56.6349
   -56.6319 -56.6285 -56.6224 -56.6209 -56.6169 -56.6145 -56.6040 -56.5812
   -56.5805 -56.5763 -56.5688 -56.5645 -56.5435 -56.5398 -56.5344 -56.5240
   -56.5237 -56.5224 -56.5162 -56.5124 -56.5057 -56.5054 -56.4951 -56.4788
   -56.4757 -56.4606 -56.4591 -56.4556 -56.4428 -56.4378 -56.4308 -56.4289
   -56.4268 -56.4244 -56.3929 -56.3920 -56.3915 -56.3844 -56.3811 -56.3801
   -56.3766 -56.3677 -56.3557 -56.3490 -56.3371 -56.3323 -56.3246 -56.3233
   -56.3229 -56.3202 -56.2906 -56.2897 -56.2865 -56.2779 -56.2753 -56.2583
   -56.2550 -56.2527 -56.2523 -56.2486 -56.2474 -56.2404 -56.2374 -56.2324
   -56.2247 -56.2238 -56.2014 -56.1931 -56.1820 -56.1758 -56.1749 -56.1559
   -56.1468 -56.1456 -56.1440 -56.1406 -56.1325 -56.1258 -56.1173 -56.1036
   -56.0949 -56.0864 -56.0797 -56.0729 -56.0689 -56.0646 -56.0433 -56.0360
   -56.0131 -55.9601 -55.8805 -55.8681 -34.8842 -34.8076 -34.8018 -34.7876
   -34.7695 -34.7466 -34.7028 -34.6989 -34.6924 -34.6863 -34.6856 -34.6762
   -34.6524 -34.6341 -34.6302 -34.5847 -34.5640 -34.5494 -34.5415 -34.5222
   -34.5062 -34.4991 -34.4719 -34.4517 -34.4409 -34.4325 -34.4207 -34.3643
   -34.3587 -34.3351 -34.3244 -34.2897 -34.2709 -34.2674 -34.2459 -34.2329
   -34.2103 -34.1645 -34.1589 -34.1335 -34.1285 -34.0618 -34.0256 -33.9006
   -33.8813 -13.7399 -13.6042 -13.4693 -13.4395 -13.3480 -13.2705 -13.2419
   -13.2122 -13.2096 -13.1929 -13.1443 -13.1304 -13.1195 -13.1142 -13.0816
   -13.0569 -13.0350 -13.0219 -13.0165 -12.9961 -12.9727 -12.9550 -12.9530
   -12.9345 -12.9217 -12.9124 -12.8987 -12.8933 -12.8863 -12.8797 -12.8673
   -12.8663 -12.8631 -12.8595 -12.8499 -12.8454 -12.8351 -12.8295 -12.8220
   -12.8146 -12.8127 -12.8068 -12.8036 -12.8004 -12.7903 -12.7872 -12.7844
   -12.7755 -12.7722 -12.7651 -12.7582 -12.7535 -12.7483 -12.7367 -12.7315
   -12.7217 -12.7147 -12.7127 -12.7051 -12.6928 -12.6894 -12.6835 -12.6754
   -12.6665 -12.6450 -12.6367 -12.6279 -12.6189 -12.6092 -12.6018 -12.5958
   -12.5856 -12.5771 -12.5744 -12.5659 -12.5618 -12.5447 -12.5298 -12.5236
   -12.5133 -12.5125 -12.5033 -12.4939 -12.4825 -12.4804 -12.4725 -12.4688
   -12.4623 -12.4362 -12.4284 -12.4234 -12.4069 -12.3892 -12.3810 -12.3730
   -12.3620 -12.3568 -12.3445 -12.3337 -12.3290 -12.3156 -12.3111 -12.2795
   -12.2563 -12.2322 -12.2193 -12.2117 -12.1992 -12.1903 -12.1859 -12.1801
   -12.1648 -12.1564 -12.1372 -12.1323 -12.1284 -12.1212 -12.0958 -12.0275
   -12.0184 -12.0151 -12.0032 -11.9883 -11.9609 -11.9433 -11.8835 -11.8536
   -11.8023 -11.7824 -11.7518 -11.7323 -11.6732 -11.5913 -11.5087 -11.5070
     6.3326   6.6826   6.9194   7.1110   7.3304   7.5460   7.5977   7.8036
     7.8839   8.0102   8.0629   8.2218   8.3029   8.3878   8.4905   8.5849
     8.6643   8.7448   8.8169   8.8668   8.9088   8.9343   9.0009   9.0634
     9.0839   9.1371   9.1605   9.2106   9.2455   9.2557   9.2795   9.2893
     9.3125   9.3342   9.3424   9.3695   9.3840   9.4036   9.4313   9.4381
     9.4542   9.4706   9.4785   9.4893   9.5106   9.5186   9.5263   9.5475
     9.5609   9.5777   9.5872   9.6028   9.6207   9.6279   9.6391   9.6435
     9.6534   9.6724   9.6733   9.6851   9.6933   9.7027   9.7163   9.7288
     9.7336   9.7440   9.7523   9.7698   9.7814   9.8009   9.8094   9.8192
     9.8215   9.8345   9.8487   9.8521   9.8680   9.8817   9.8853   9.8933
     9.9085   9.9201   9.9293   9.9473   9.9534   9.9591   9.9688   9.9860
     9.9934   9.9962  10.0094  10.0190  10.0237  10.0371  10.0441  10.0531
    10.0600  10.0696  10.0740  10.0883  10.0971  10.1008  10.1077  10.1204
    10.1275  10.1339  10.1406  10.1519  10.1648  10.1724  10.1786  10.1826
    10.1881  10.1958  10.2038  10.2136  10.2248  10.2306  10.2358  10.2437
    10.2517  10.2600  10.2685  10.2809  10.2844  10.2964  10.3045  10.3158
    10.3194  10.3294  10.3320  10.3394  10.3432  10.3603  10.3643  10.3737
    10.3885  10.3920  10.4021  10.4082  10.4221  10.4236  10.4393  10.4467
    10.4491  10.4571  10.4662  10.4773  10.4895  10.4953  10.5070  10.5082
    10.5156  10.5233  10.5309  10.5360  10.5480  10.5515  10.5603  10.5706
    10.5799  10.5865  10.5985  10.6083  10.6096  10.6276  10.6350  10.6471
    10.6525  10.6590  10.6696  10.6799  10.6854  10.6919  10.7036  10.7094
    10.7238  10.7304  10.7377  10.7475  10.7549  10.7613  10.7677  10.7792
    10.7908  10.8016  10.8135  10.8205  10.8297  10.8395  10.8494  10.8620
    10.8778  10.8887  10.8965  10.9152  10.9243  10.9302  10.9385  10.9560
    10.9653  10.9778  10.9940  10.9998  11.0118  11.0188  11.0416  11.0451
    11.0623  11.0712  11.0801  11.0904  11.1047  11.1122  11.1312  11.1455
    11.1515  11.1584  11.1723  11.1893  11.2037  11.2114  11.2268  11.2352
    11.2468  11.2586  11.2627  11.2814  11.2892  11.3105  11.3193  11.3311
    11.3424  11.3519  11.3594  11.3696  11.3846  11.3952  11.4179  11.4303
    11.4361  11.4500  11.4578  11.4814  11.4860  11.4946  11.5100  11.5283
    11.5472  11.5579  11.5767  11.5931  11.6283  11.6551  11.6703  11.6880
    11.6951  11.7141  11.7197  11.7487  11.7772  11.7849  11.8093  11.8445
    11.8596  11.8929  11.9353  11.9561  11.9846  11.9924  12.0204  12.0334
    12.0817  12.1081  12.1243  12.1761  12.2416  12.2631  12.2921  12.3162
    12.3286  12.3592  12.4183  12.4307  12.4882  12.4961  12.5402  12.5793
    12.5997  12.6384  12.6757  12.7009  12.7260  12.7421  12.7726  12.7982
    12.8318  12.8672  12.8926  12.9155  12.9233  12.9659  12.9922  13.0241
    13.0467  13.0722  13.0921  13.1104  13.1288  13.1607  13.2042  13.2217
    13.2272  13.2640  13.2789  13.3121  13.3691  13.3761  13.4054  13.4151
    13.4540  13.4728  13.4975  13.5457  13.5575  13.5892  13.6147  13.6304
    13.6622  13.6701  13.7182  13.7369  13.7493  13.7742  13.8110  13.8334
    13.8638  13.8662  13.9014  13.9100  13.9519  13.9656  13.9924  14.0207
    14.0394  14.0684  14.0885  14.1112  14.1450  14.1563  14.1803  14.2085
    14.2220  14.2367  14.2701  14.2995  14.3125  14.3400  14.3679  14.3995
    14.4202  14.4497  14.4598  14.5061  14.5429  14.5524  14.5668  14.5853
    14.6221  14.6474  14.6706  14.7033  14.7172  14.7490  14.7657  14.8066
    14.8533  14.8853  14.9249  14.9321  14.9632  14.9727  15.0195  15.0357
    15.0634  15.1061  15.1228  15.1330  15.1757  15.1946  15.2117  15.2263
    15.2537  15.2811  15.3055  15.3308  15.3485  15.3822  15.4075  15.4336
    15.4959  15.5097  15.5403  15.5519  15.5804  15.6019  15.6289  15.6614
    15.6812  15.7048  15.7423  15.7594  15.8064  15.8394  15.8541  15.8662
    15.8910  15.9431  15.9622  15.9837  16.0015  16.0245  16.0499  16.0789
    16.1135  16.1284  16.1603  16.1722  16.2172  16.2507  16.2724  16.2896
    16.3356  16.3553  16.3858  16.4163  16.4569  16.4786  16.5022  16.5194
    16.5524  16.5879  16.6041  16.6349  16.6572  16.6875  16.7192  16.7458
    16.7862  16.8119  16.8282  16.8406  16.8793  16.9150  16.9430  16.9773
    16.9926  17.0170  17.0458  17.0679  17.0940  17.1277  17.1498  17.1859
    17.2094  17.2367  17.2637  17.2806  17.3197  17.3343  17.3521  17.3863
    17.4104  17.4480  17.4611  17.5032  17.5393  17.5838  17.5961  17.6136
    17.6540  17.6665  17.6868  17.7063  17.7521  17.8002  17.8148  17.8434
    17.8493  17.8737  17.9270  17.9627  17.9973  18.0451  18.0750  18.0927
    18.1081  18.1622  18.1887  18.2151  18.2478  18.2758  18.3060  18.3321
    18.3476  18.3815  18.4234  18.4740  18.5034  18.5371  18.5590  18.5783
    18.6015  18.6322  18.6697  18.7354  18.7747  18.8047  18.8093  18.8764
    18.8892  18.9431  18.9817  19.0269  19.0778  19.0837  19.1074  19.1765
    19.1805  19.2486  19.2729  19.3379  19.3581  19.3767  19.4159  19.5109
    19.5427  19.5957  19.6327  19.6738  19.7138  19.7519  19.7975  19.8549
    19.8665  19.8873  19.9604  20.0020  20.0541  20.0785  20.1298  20.1921
    20.2493  20.2769  20.2977  20.3592  20.4443  20.4783  20.5167  20.6069
    20.6534  20.6753  20.7361  20.7560  20.7845  20.8460  20.8807  20.9011
    20.9565  20.9996  21.0370  21.0806  21.1116  21.1596  21.2214  21.2547
    21.2956  21.3478  21.4102  21.4416  21.4688  21.5205  21.5810  21.6492
    21.6915  21.7480  21.7563  21.8077  21.8442  21.8941  21.9325  21.9574
    22.0119  22.0336  22.0725  22.1851  22.2170  22.2425  22.2727  22.3156
    22.3696  22.3868  22.4070  22.4816  22.5144  22.5466  22.6054  22.6270
    22.6588  22.6855  22.7254  22.7962  22.8370  22.8879  22.9323  22.9437
    22.9878  23.0388  23.0829  23.1326  23.1560  23.2166  23.2776  23.3271
    23.3403  23.3613  23.4028  23.4904  23.5277  23.5472  23.5873  23.6148
    23.6332  23.6878  23.7361  23.8010  23.8129  23.8407  23.8955  23.9371
    23.9573  24.0028  24.0351  24.0641  24.1245  24.2008  24.2189  24.2680
    24.2816  24.3383  24.3875  24.4173  24.4447  24.4686  24.4821  24.5247
    24.5759  24.6409  24.6774  24.6973  24.7515  24.7941  24.8153  24.8597
    24.8880  24.9161  24.9216  24.9271  25.0107  25.0398  25.0815  25.1377
    25.1758  25.2283

     occupation numbers 
     1.0000   1.0000   1.0000   1.0000   1.0000   1.0000   1.0000   1.0000
     1.0000   1.0000   1.0000   1.0000   1.0000   1.0000   1.0000   1.0000
     1.0000   1.0000   1.0000   1.0000   1.0000   1.0000   1.0000   1.0000
     1.0000   1.0000   1.0000   1.0000   1.0000   1.0000   1.0000   1.0000
     1.0000   1.0000   1.0000   1.0000   1.0000   1.0000   1.0000   1.0000
     1.0000   1.0000   1.0000   1.0000   1.0000   1.0000   1.0000   1.0000
     1.0000   1.0000   1.0000   1.0000   1.0000   1.0000   1.0000   1.0000
     1.0000   1.0000   1.0000   1.0000   1.0000   1.0000   1.0000   1.0000
     1.0000   1.0000   1.0000   1.0000   1.0000   1.0000   1.0000   1.0000
     1.0000   1.0000   1.0000   1.0000   1.0000   1.0000   1.0000   1.0000
     1.0000   1.0000   1.0000   1.0000   1.0000   1.0000   1.0000   1.0000
     1.0000   1.0000   1.0000   1.0000   1.0000   1.0000   1.0000   1.0000
     1.0000   1.0000   1.0000   1.0000   1.0000   1.0000   1.0000   1.0000
     1.0000   1.0000   1.0000   1.0000   1.0000   1.0000   1.0000   1.0000
     1.0000   1.0000   1.0000   1.0000   1.0000   1.0000   1.0000   1.0000
     1.0000   1.0000   1.0000   1.0000   1.0000   1.0000   1.0000   1.0000
     1.0000   1.0000   1.0000   1.0000   1.0000   1.0000   1.0000   1.0000
     1.0000   1.0000   1.0000   1.0000   1.0000   1.0000   1.0000   1.0000
     1.0000   1.0000   1.0000   1.0000   1.0000   1.0000   1.0000   1.0000
     1.0000   1.0000   1.0000   1.0000   1.0000   1.0000   1.0000   1.0000
     1.0000   1.0000   1.0000   1.0000   1.0000   1.0000   1.0000   1.0000
     1.0000   1.0000   1.0000   1.0000   1.0000   1.0000   1.0000   1.0000
     1.0000   1.0000   1.0000   1.0000   1.0000   1.0000   1.0000   1.0000
     1.0000   1.0000   1.0000   1.0000   1.0000   1.0000   1.0000   1.0000
     1.0000   1.0000   1.0000   1.0000   1.0000   1.0000   1.0000   1.0000
     1.0000   1.0000   1.0000   1.0000   1.0000   1.0000   1.0000   1.0000
     1.0000   1.0000   1.0000   1.0000   1.0000   1.0000   1.0000   1.0000
     1.0000   1.0000   1.0000   1.0000   1.0000   1.0000   1.0000   1.0000
     1.0000   1.0000   1.0000   1.0000   1.0000   1.0000   1.0000   1.0000
     1.0000   1.0000   1.0000   1.0000   1.0000   1.0000   1.0000   1.0000
     1.0000   1.0000   1.0000   1.0000   1.0000   1.0000   1.0000   1.0000
     1.0000   1.0000   1.0000   1.0000   1.0000   1.0000   1.0000   1.0000
     1.0000   1.0000   1.0000   1.0000   1.0000   1.0000   1.0000   1.0000
     1.0000   1.0000   1.0000   1.0000   1.0000   1.0000   1.0000   1.0000
     1.0000   1.0000   1.0000   1.0000   1.0000   1.0000   1.0000   1.0000
     1.0000   1.0000   1.0000   1.0000   1.0000   1.0000   1.0000   1.0000
     1.0000   1.0000   1.0000   1.0000   1.0000   1.0000   1.0000   1.0000
     1.0000   1.0000   1.0000   1.0000   1.0000   1.0000   1.0000   1.0000
     1.0000   1.0000   1.0000   1.0000   1.0000   1.0000   1.0000   1.0000
     1.0000   1.0000   1.0000   1.0000   1.0000   1.0000   1.0000   1.0000
     1.0000   1.0000   1.0000   1.0000   1.0000   1.0000   1.0000   1.0000
     1.0000   1.0000   1.0000   1.0000   1.0000   1.0000   1.0000   1.0000
     1.0000   1.0000   1.0000   1.0000   1.0000   1.0000   1.0000   1.0000
     1.0000   1.0000   1.0000   1.0000   1.0000   1.0000   1.0000   1.0000
     1.0000   1.0000   1.0000   1.0000   1.0000   1.0000   1.0000   1.0000
     1.0000   1.0000   1.0000   1.0000   1.0000   1.0000   1.0000   1.0000
     1.0000   1.0000   1.0000   1.0000   1.0000   1.0000   1.0000   1.0000
     1.0000   1.0000   1.0000   1.0000   1.0000   1.0000   1.0000   1.0000
     1.0000   1.0000   1.0000   1.0000   1.0000   1.0000   1.0000   1.0000
     1.0000   1.0000   1.0000   1.0000   1.0000   1.0000   1.0000   1.0000
     1.0000   1.0000   1.0000   1.0000   1.0000   1.0000   1.0000   1.0000
     1.0000   1.0000   1.0000   1.0000   1.0000   1.0000   1.0000   1.0000
     1.0000   1.0000   1.0000   1.0000   1.0000   1.0000   1.0000   1.0000
     1.0000   1.0000   1.0000   1.0000   1.0000   1.0000   1.0000   1.0000
     1.0000   1.0000   1.0000   1.0000   1.0000   1.0000   1.0000   1.0000
     1.0000   1.0000   1.0000   1.0000   1.0000   1.0000   1.0000   1.0000
     1.0000   1.0000   1.0000   1.0000   1.0000   1.0000   1.0000   1.0000
     1.0000   1.0000   1.0000   1.0000   1.0000   1.0000   1.0000   1.0000
     1.0000   1.0000   1.0000   1.0000   1.0000   1.0000   1.0000   1.0000
     1.0000   1.0000   1.0000   1.0000   1.0000   1.0000   1.0000   1.0000
     1.0000   1.0000   1.0000   1.0000   1.0000   1.0000   1.0000   1.0000
     1.0000   1.0000   1.0000   1.0000   1.0000   1.0000   1.0000   1.0000
     1.0000   1.0000   1.0000   1.0000   1.0000   1.0000   1.0000   1.0000
     1.0000   1.0000   1.0000   1.0000   1.0000   1.0000   1.0000   1.0000
     1.0000   1.0000   1.0000   1.0000   1.0000   1.0000   1.0000   1.0000
     1.0000   1.0000   1.0000   1.0000   1.0000   1.0000   1.0000   1.0000
     1.0000   1.0000   1.0000   1.0000   1.0000   1.0000   1.0000   1.0000
     1.0000   1.0000   1.0000   1.0000   1.0000   1.0000   1.0000   1.0000
     1.0000   1.0000   1.0000   1.0000   1.0000   1.0000   1.0000   1.0000
     1.0000   1.0000   1.0000   1.0000   1.0000   1.0000   1.0000   1.0000
     1.0000   1.0000   1.0000   1.0000   1.0000   1.0000   1.0000   1.0000
     1.0000   1.0000   1.0000   1.0000   1.0000   1.0000   1.0000   1.0000
     1.0000   1.0000   1.0000   1.0000   1.0000   1.0000   1.0000   1.0000
     1.0000   1.0000   1.0000   1.0000   1.0000   1.0000   1.0000   1.0000
     1.0000   1.0000   1.0000   1.0000   1.0000   1.0000   1.0000   1.0000
     1.0000   1.0000   1.0000   1.0000   1.0000   1.0000   1.0000   1.0000
     1.0000   1.0000   1.0000   1.0000   1.0000   1.0000   1.0000   1.0000
     1.0000   1.0000   1.0000   1.0000   1.0000   1.0000   1.0000   1.0000
     1.0000   1.0000   1.0000   1.0000   1.0000   1.0000   1.0000   1.0000
     1.0000   1.0000   1.0000   1.0000   1.0000   1.0000   1.0000   1.0000
     1.0000   1.0000   1.0000   1.0000   1.0000   1.0000   1.0000   1.0000
     1.0000   1.0000   1.0000   1.0000   1.0000   1.0000   1.0000   1.0000
     1.0000   1.0000   1.0000   1.0000   1.0000   1.0000   1.0000   1.0000
     1.0000   1.0000   1.0000   1.0000   1.0000   0.9999   0.9999   0.9999
     0.9999   0.9999   0.9998   0.9998   0.9996   0.9996   0.9995   0.9994
     0.9992   0.9991   0.9988   0.9982   0.9979   0.9973   0.9965   0.9960
     0.9946   0.9942   0.9911   0.9894   0.9881   0.9851   0.9793   0.9746
     0.9668   0.9660   0.9537   0.9501   0.9283   0.9195   0.8993   0.8732
     0.8529   0.8162   0.7868   0.7498   0.6871   0.6644   0.6137   0.5507
     0.5198   0.4860   0.4105   0.3469   0.3204   0.2680   0.2208   0.1749
     0.1491   0.1179   0.1086   0.0737   0.0537   0.0495   0.0436   0.0370
     0.0267   0.0213   0.0173   0.0128   0.0113   0.0085   0.0073   0.0050
     0.0033   0.0024   0.0017   0.0016   0.0012   0.0011   0.0007   0.0006
     0.0005   0.0003   0.0003   0.0003   0.0002   0.0001   0.0001   0.0001
     0.0001   0.0001   0.0001   0.0000   0.0000   0.0000   0.0000   0.0000
     0.0000   0.0000   0.0000   0.0000   0.0000   0.0000   0.0000   0.0000
     0.0000   0.0000   0.0000   0.0000   0.0000   0.0000   0.0000   0.0000
     0.0000   0.0000   0.0000   0.0000   0.0000   0.0000   0.0000   0.0000
     0.0000   0.0000   0.0000   0.0000   0.0000   0.0000   0.0000   0.0000
     0.0000   0.0000   0.0000   0.0000   0.0000   0.0000   0.0000   0.0000
     0.0000   0.0000   0.0000   0.0000   0.0000   0.0000   0.0000   0.0000
     0.0000   0.0000   0.0000   0.0000   0.0000   0.0000   0.0000   0.0000
     0.0000   0.0000   0.0000   0.0000   0.0000   0.0000   0.0000   0.0000
     0.0000   0.0000   0.0000   0.0000   0.0000   0.0000   0.0000   0.0000
     0.0000   0.0000   0.0000   0.0000   0.0000   0.0000   0.0000   0.0000
     0.0000   0.0000   0.0000   0.0000   0.0000   0.0000   0.0000   0.0000
     0.0000   0.0000   0.0000   0.0000   0.0000   0.0000   0.0000   0.0000
     0.0000   0.0000   0.0000   0.0000   0.0000   0.0000   0.0000   0.0000
     0.0000   0.0000   0.0000   0.0000   0.0000   0.0000   0.0000   0.0000
     0.0000   0.0000   0.0000   0.0000   0.0000   0.0000   0.0000   0.0000
     0.0000   0.0000   0.0000   0.0000   0.0000   0.0000   0.0000   0.0000
     0.0000   0.0000   0.0000   0.0000   0.0000   0.0000   0.0000   0.0000
     0.0000   0.0000   0.0000   0.0000   0.0000   0.0000   0.0000   0.0000
     0.0000   0.0000   0.0000   0.0000   0.0000   0.0000   0.0000   0.0000
     0.0000   0.0000   0.0000   0.0000   0.0000   0.0000   0.0000   0.0000
     0.0000   0.0000   0.0000   0.0000   0.0000   0.0000   0.0000   0.0000
     0.0000   0.0000   0.0000   0.0000   0.0000   0.0000   0.0000   0.0000
     0.0000   0.0000   0.0000   0.0000   0.0000   0.0000   0.0000   0.0000
     0.0000   0.0000   0.0000   0.0000   0.0000   0.0000   0.0000   0.0000
     0.0000   0.0000   0.0000   0.0000   0.0000   0.0000   0.0000   0.0000
     0.0000   0.0000   0.0000   0.0000   0.0000   0.0000   0.0000   0.0000
     0.0000   0.0000   0.0000   0.0000   0.0000   0.0000   0.0000   0.0000
     0.0000   0.0000   0.0000   0.0000   0.0000   0.0000   0.0000   0.0000
     0.0000   0.0000   0.0000   0.0000   0.0000   0.0000   0.0000   0.0000
     0.0000   0.0000   0.0000   0.0000   0.0000   0.0000   0.0000   0.0000
     0.0000   0.0000   0.0000   0.0000   0.0000   0.0000   0.0000   0.0000
     0.0000   0.0000   0.0000   0.0000   0.0000   0.0000   0.0000   0.0000
     0.0000   0.0000   0.0000   0.0000   0.0000   0.0000   0.0000   0.0000
     0.0000   0.0000   0.0000   0.0000   0.0000   0.0000   0.0000   0.0000
     0.0000   0.0000

          k = 0.1398 0.2795-0.2795 (115520 PWs)   bands (ev):

   -99.9639 -99.7888 -99.7055 -99.6151 -99.5571 -99.5373 -99.5163 -99.4950
   -99.4872 -99.4131 -99.3901 -99.3740 -99.3447 -99.3199 -99.2987 -99.2721
   -99.1956 -99.1909 -99.1815 -99.1738 -99.1651 -99.1560 -99.1437 -99.1038
   -99.0899 -99.0445 -99.0251 -99.0128 -99.0023 -98.9949 -98.9906 -98.9808
   -98.9528 -98.9300 -98.9282 -98.8726 -98.8684 -98.8592 -98.8556 -98.8480
   -98.8452 -98.7772 -98.7769 -98.6350 -98.6300 -57.7178 -57.4472 -57.3863
   -57.2269 -57.2195 -57.1977 -57.1618 -57.1425 -57.0962 -57.0897 -57.0397
   -57.0256 -57.0109 -56.9357 -56.9185 -56.9144 -56.9059 -56.8983 -56.8925
   -56.8871 -56.8834 -56.8516 -56.8194 -56.8116 -56.8076 -56.7923 -56.7809
   -56.7748 -56.7638 -56.7302 -56.7284 -56.7160 -56.7150 -56.7128 -56.7044
   -56.6985 -56.6797 -56.6765 -56.6563 -56.6484 -56.6482 -56.6367 -56.6349
   -56.6319 -56.6285 -56.6224 -56.6209 -56.6169 -56.6145 -56.6040 -56.5812
   -56.5805 -56.5763 -56.5688 -56.5645 -56.5435 -56.5398 -56.5344 -56.5240
   -56.5237 -56.5224 -56.5161 -56.5124 -56.5057 -56.5054 -56.4951 -56.4788
   -56.4757 -56.4606 -56.4591 -56.4556 -56.4428 -56.4378 -56.4308 -56.4289
   -56.4269 -56.4244 -56.3929 -56.3920 -56.3915 -56.3844 -56.3811 -56.3801
   -56.3766 -56.3677 -56.3557 -56.3490 -56.3371 -56.3324 -56.3246 -56.3233
   -56.3229 -56.3202 -56.2906 -56.2897 -56.2865 -56.2779 -56.2753 -56.2584
   -56.2550 -56.2527 -56.2523 -56.2486 -56.2474 -56.2403 -56.2374 -56.2324
   -56.2247 -56.2238 -56.2014 -56.1931 -56.1820 -56.1758 -56.1749 -56.1559
   -56.1468 -56.1456 -56.1440 -56.1406 -56.1325 -56.1258 -56.1173 -56.1036
   -56.0949 -56.0864 -56.0797 -56.0729 -56.0689 -56.0646 -56.0433 -56.0360
   -56.0131 -55.9601 -55.8805 -55.8681 -34.8842 -34.8076 -34.8018 -34.7876
   -34.7695 -34.7466 -34.7028 -34.6989 -34.6924 -34.6863 -34.6856 -34.6762
   -34.6524 -34.6341 -34.6302 -34.5847 -34.5640 -34.5494 -34.5415 -34.5222
   -34.5062 -34.4991 -34.4719 -34.4517 -34.4409 -34.4325 -34.4207 -34.3643
   -34.3587 -34.3351 -34.3244 -34.2897 -34.2709 -34.2674 -34.2459 -34.2329
   -34.2103 -34.1645 -34.1589 -34.1335 -34.1285 -34.0618 -34.0256 -33.9006
   -33.8813 -13.7399 -13.6042 -13.4693 -13.4395 -13.3480 -13.2705 -13.2418
   -13.2123 -13.2096 -13.1928 -13.1444 -13.1304 -13.1196 -13.1140 -13.0817
   -13.0567 -13.0335 -13.0227 -13.0178 -12.9964 -12.9708 -12.9552 -12.9530
   -12.9349 -12.9216 -12.9136 -12.8990 -12.8936 -12.8848 -12.8810 -12.8661
   -12.8653 -12.8638 -12.8597 -12.8514 -12.8447 -12.8356 -12.8283 -12.8214
   -12.8155 -12.8112 -12.8062 -12.8032 -12.8011 -12.7914 -12.7856 -12.7845
   -12.7767 -12.7748 -12.7646 -12.7583 -12.7505 -12.7467 -12.7371 -12.7344
   -12.7226 -12.7164 -12.7088 -12.7048 -12.6970 -12.6893 -12.6827 -12.6761
   -12.6660 -12.6412 -12.6379 -12.6273 -12.6180 -12.6101 -12.6008 -12.5957
   -12.5883 -12.5761 -12.5740 -12.5662 -12.5618 -12.5455 -12.5302 -12.5219
   -12.5174 -12.5113 -12.5002 -12.4944 -12.4838 -12.4804 -12.4729 -12.4681
   -12.4626 -12.4363 -12.4293 -12.4227 -12.4072 -12.3879 -12.3811 -12.3731
   -12.3622 -12.3569 -12.3443 -12.3333 -12.3297 -12.3157 -12.3104 -12.2798
   -12.2562 -12.2330 -12.2192 -12.2113 -12.1990 -12.1900 -12.1860 -12.1798
   -12.1634 -12.1585 -12.1370 -12.1330 -12.1281 -12.1212 -12.0953 -12.0274
   -12.0190 -12.0146 -12.0032 -11.9883 -11.9609 -11.9433 -11.8835 -11.8536
   -11.8023 -11.7824 -11.7518 -11.7323 -11.6732 -11.5913 -11.5087 -11.5070
     6.3403   6.6383   7.0186   7.0811   7.2996   7.5100   7.6209   7.7701
     7.9000   8.0074   8.1003   8.1995   8.3303   8.4162   8.4972   8.6088
     8.6556   8.7289   8.7874   8.8263   8.8836   8.9415   9.0338   9.0540
     9.1073   9.1391   9.1642   9.2018   9.2186   9.2423   9.2590   9.3001
     9.3179   9.3361   9.3601   9.3647   9.3904   9.3991   9.4190   9.4359
     9.4618   9.4699   9.4872   9.4983   9.5079   9.5236   9.5297   9.5431
     9.5524   9.5661   9.5903   9.5980   9.6089   9.6253   9.6429   9.6533
     9.6634   9.6699   9.6853   9.6945   9.7000   9.7081   9.7198   9.7293
     9.7341   9.7450   9.7531   9.7608   9.7801   9.7932   9.8096   9.8159
     9.8268   9.8380   9.8477   9.8556   9.8715   9.8825   9.8960   9.8997
     9.9084   9.9217   9.9341   9.9410   9.9449   9.9566   9.9639   9.9784
     9.9913   9.9972  10.0119  10.0193  10.0288  10.0344  10.0479  10.0573
    10.0720  10.0746  10.0827  10.0896  10.0935  10.1033  10.1105  10.1142
    10.1211  10.1346  10.1434  10.1544  10.1588  10.1688  10.1752  10.1806
    10.1921  10.1942  10.2015  10.2119  10.2172  10.2266  10.2347  10.2427
    10.2592  10.2634  10.2712  10.2784  10.2898  10.2924  10.3022  10.3052
    10.3198  10.3292  10.3409  10.3446  10.3489  10.3582  10.3626  10.3772
    10.3862  10.3908  10.3981  10.4144  10.4182  10.4273  10.4343  10.4446
    10.4518  10.4581  10.4684  10.4804  10.4865  10.4942  10.5030  10.5101
    10.5206  10.5262  10.5315  10.5360  10.5424  10.5572  10.5636  10.5759
    10.5819  10.5886  10.5946  10.6074  10.6192  10.6238  10.6267  10.6435
    10.6461  10.6563  10.6679  10.6782  10.6867  10.6928  10.6996  10.7148
    10.7200  10.7311  10.7390  10.7494  10.7532  10.7651  10.7666  10.7793
    10.7951  10.8047  10.8099  10.8189  10.8322  10.8464  10.8530  10.8612
    10.8691  10.8794  10.8984  10.9137  10.9216  10.9316  10.9444  10.9537
    10.9673  10.9788  10.9908  11.0054  11.0193  11.0272  11.0332  11.0533
    11.0596  11.0710  11.0844  11.0977  11.1104  11.1195  11.1255  11.1345
    11.1476  11.1634  11.1777  11.1890  11.1930  11.2133  11.2169  11.2270
    11.2404  11.2480  11.2672  11.2792  11.2873  11.3031  11.3076  11.3261
    11.3324  11.3499  11.3593  11.3671  11.3851  11.3965  11.4033  11.4142
    11.4273  11.4499  11.4645  11.4692  11.4788  11.4955  11.5157  11.5280
    11.5448  11.5642  11.5824  11.5919  11.6075  11.6226  11.6401  11.6814
    11.7045  11.7307  11.7477  11.7691  11.7769  11.7953  11.8110  11.8601
    11.8795  11.9004  11.9398  11.9546  11.9916  11.9949  12.0357  12.0548
    12.0843  12.1215  12.1573  12.1955  12.2066  12.2442  12.3015  12.3212
    12.3456  12.3735  12.4020  12.4238  12.4537  12.4893  12.5477  12.5766
    12.5959  12.6425  12.6675  12.6882  12.7274  12.7390  12.7688  12.7999
    12.8292  12.8391  12.8817  12.9160  12.9390  12.9680  12.9919  13.0120
    13.0480  13.0786  13.1113  13.1329  13.1592  13.1699  13.2033  13.2133
    13.2424  13.2679  13.2983  13.3190  13.3582  13.3792  13.3995  13.4331
    13.4380  13.4674  13.4864  13.5045  13.5298  13.5814  13.6098  13.6349
    13.6442  13.6715  13.6900  13.7352  13.7591  13.7844  13.8139  13.8362
    13.8509  13.8751  13.8924  13.9143  13.9511  13.9671  13.9957  14.0160
    14.0335  14.0605  14.0652  14.1171  14.1281  14.1546  14.1797  14.1911
    14.2271  14.2470  14.2791  14.3071  14.3205  14.3636  14.3866  14.4052
    14.4338  14.4556  14.4844  14.5091  14.5372  14.5674  14.5743  14.6013
    14.6318  14.6451  14.6736  14.7066  14.7339  14.7607  14.8086  14.8252
    14.8609  14.8791  14.9073  14.9437  14.9568  14.9857  15.0012  15.0340
    15.0652  15.0959  15.1263  15.1463  15.1569  15.1770  15.1971  15.2210
    15.2629  15.2812  15.3060  15.3186  15.3579  15.3829  15.4296  15.4463
    15.4626  15.4744  15.5072  15.5311  15.5607  15.5894  15.6208  15.6640
    15.6908  15.7060  15.7429  15.7544  15.7764  15.8061  15.8512  15.8784
    15.8863  15.9153  15.9443  15.9674  16.0109  16.0221  16.0542  16.0748
    16.1158  16.1308  16.1587  16.1960  16.2326  16.2445  16.2795  16.3065
    16.3364  16.3508  16.3716  16.3989  16.4373  16.4780  16.5016  16.5239
    16.5411  16.5918  16.6020  16.6596  16.6839  16.6901  16.7327  16.7519
    16.7903  16.8068  16.8208  16.8672  16.8825  16.9023  16.9347  16.9469
    16.9828  17.0210  17.0564  17.0679  17.1023  17.1312  17.1814  17.1901
    17.2410  17.2504  17.2707  17.3029  17.3127  17.3403  17.3745  17.3952
    17.4155  17.4595  17.4708  17.5123  17.5291  17.5550  17.5848  17.5936
    17.6422  17.6891  17.7019  17.7360  17.7534  17.7951  17.8161  17.8535
    17.8959  17.9154  17.9451  17.9782  17.9906  18.0252  18.0580  18.0906
    18.1053  18.1411  18.1438  18.1718  18.2334  18.2522  18.2730  18.3093
    18.3291  18.3773  18.4013  18.4449  18.4872  18.5195  18.5689  18.5831
    18.6111  18.6460  18.7042  18.7343  18.7805  18.8053  18.8363  18.8544
    18.9151  18.9317  18.9800  19.0374  19.0641  19.1321  19.1630  19.1902
    19.2126  19.2462  19.2917  19.3343  19.3804  19.4150  19.4670  19.4868
    19.5296  19.5681  19.6098  19.6425  19.6830  19.7000  19.7915  19.7999
    19.8928  19.9488  19.9610  20.0093  20.0503  20.0868  20.1359  20.2239
    20.2429  20.2777  20.3588  20.3724  20.4376  20.5007  20.5423  20.5682
    20.6347  20.6464  20.6733  20.7320  20.7597  20.8122  20.8703  20.8998
    20.9268  20.9874  21.0165  21.0387  21.0947  21.1194  21.2145  21.2369
    21.3255  21.3346  21.3951  21.4588  21.5019  21.5697  21.5944  21.6636
    21.6871  21.7204  21.7516  21.7968  21.8359  21.8766  21.9475  21.9768
    22.0025  22.0381  22.0616  22.0903  22.1713  22.2188  22.2709  22.3517
    22.3588  22.4030  22.4427  22.4875  22.5191  22.5533  22.6133  22.6605
    22.7050  22.7372  22.7663  22.8292  22.8619  22.8858  22.9378  22.9826
    23.0268  23.0504  23.1273  23.1492  23.2010  23.2243  23.2779  23.2939
    23.3681  23.4016  23.4610  23.4715  23.4965  23.5669  23.5810  23.6076
    23.6339  23.7083  23.7197  23.7728  23.8205  23.8442  23.8753  23.9047
    23.9514  24.0076  24.0517  24.0861  24.1092  24.1238  24.2077  24.2281
    24.2665  24.2936  24.3406  24.3907  24.4081  24.4399  24.4944  24.5489
    24.5785  24.6152  24.6732  24.7002  24.7194  24.7830  24.7991  24.8481
    24.8910  24.9307  24.9757  25.0014  25.0552  25.0611  25.0980  25.1521
    25.2054  25.2294

     occupation numbers 
     1.0000   1.0000   1.0000   1.0000   1.0000   1.0000   1.0000   1.0000
     1.0000   1.0000   1.0000   1.0000   1.0000   1.0000   1.0000   1.0000
     1.0000   1.0000   1.0000   1.0000   1.0000   1.0000   1.0000   1.0000
     1.0000   1.0000   1.0000   1.0000   1.0000   1.0000   1.0000   1.0000
     1.0000   1.0000   1.0000   1.0000   1.0000   1.0000   1.0000   1.0000
     1.0000   1.0000   1.0000   1.0000   1.0000   1.0000   1.0000   1.0000
     1.0000   1.0000   1.0000   1.0000   1.0000   1.0000   1.0000   1.0000
     1.0000   1.0000   1.0000   1.0000   1.0000   1.0000   1.0000   1.0000
     1.0000   1.0000   1.0000   1.0000   1.0000   1.0000   1.0000   1.0000
     1.0000   1.0000   1.0000   1.0000   1.0000   1.0000   1.0000   1.0000
     1.0000   1.0000   1.0000   1.0000   1.0000   1.0000   1.0000   1.0000
     1.0000   1.0000   1.0000   1.0000   1.0000   1.0000   1.0000   1.0000
     1.0000   1.0000   1.0000   1.0000   1.0000   1.0000   1.0000   1.0000
     1.0000   1.0000   1.0000   1.0000   1.0000   1.0000   1.0000   1.0000
     1.0000   1.0000   1.0000   1.0000   1.0000   1.0000   1.0000   1.0000
     1.0000   1.0000   1.0000   1.0000   1.0000   1.0000   1.0000   1.0000
     1.0000   1.0000   1.0000   1.0000   1.0000   1.0000   1.0000   1.0000
     1.0000   1.0000   1.0000   1.0000   1.0000   1.0000   1.0000   1.0000
     1.0000   1.0000   1.0000   1.0000   1.0000   1.0000   1.0000   1.0000
     1.0000   1.0000   1.0000   1.0000   1.0000   1.0000   1.0000   1.0000
     1.0000   1.0000   1.0000   1.0000   1.0000   1.0000   1.0000   1.0000
     1.0000   1.0000   1.0000   1.0000   1.0000   1.0000   1.0000   1.0000
     1.0000   1.0000   1.0000   1.0000   1.0000   1.0000   1.0000   1.0000
     1.0000   1.0000   1.0000   1.0000   1.0000   1.0000   1.0000   1.0000
     1.0000   1.0000   1.0000   1.0000   1.0000   1.0000   1.0000   1.0000
     1.0000   1.0000   1.0000   1.0000   1.0000   1.0000   1.0000   1.0000
     1.0000   1.0000   1.0000   1.0000   1.0000   1.0000   1.0000   1.0000
     1.0000   1.0000   1.0000   1.0000   1.0000   1.0000   1.0000   1.0000
     1.0000   1.0000   1.0000   1.0000   1.0000   1.0000   1.0000   1.0000
     1.0000   1.0000   1.0000   1.0000   1.0000   1.0000   1.0000   1.0000
     1.0000   1.0000   1.0000   1.0000   1.0000   1.0000   1.0000   1.0000
     1.0000   1.0000   1.0000   1.0000   1.0000   1.0000   1.0000   1.0000
     1.0000   1.0000   1.0000   1.0000   1.0000   1.0000   1.0000   1.0000
     1.0000   1.0000   1.0000   1.0000   1.0000   1.0000   1.0000   1.0000
     1.0000   1.0000   1.0000   1.0000   1.0000   1.0000   1.0000   1.0000
     1.0000   1.0000   1.0000   1.0000   1.0000   1.0000   1.0000   1.0000
     1.0000   1.0000   1.0000   1.0000   1.0000   1.0000   1.0000   1.0000
     1.0000   1.0000   1.0000   1.0000   1.0000   1.0000   1.0000   1.0000
     1.0000   1.0000   1.0000   1.0000   1.0000   1.0000   1.0000   1.0000
     1.0000   1.0000   1.0000   1.0000   1.0000   1.0000   1.0000   1.0000
     1.0000   1.0000   1.0000   1.0000   1.0000   1.0000   1.0000   1.0000
     1.0000   1.0000   1.0000   1.0000   1.0000   1.0000   1.0000   1.0000
     1.0000   1.0000   1.0000   1.0000   1.0000   1.0000   1.0000   1.0000
     1.0000   1.0000   1.0000   1.0000   1.0000   1.0000   1.0000   1.0000
     1.0000   1.0000   1.0000   1.0000   1.0000   1.0000   1.0000   1.0000
     1.0000   1.0000   1.0000   1.0000   1.0000   1.0000   1.0000   1.0000
     1.0000   1.0000   1.0000   1.0000   1.0000   1.0000   1.0000   1.0000
     1.0000   1.0000   1.0000   1.0000   1.0000   1.0000   1.0000   1.0000
     1.0000   1.0000   1.0000   1.0000   1.0000   1.0000   1.0000   1.0000
     1.0000   1.0000   1.0000   1.0000   1.0000   1.0000   1.0000   1.0000
     1.0000   1.0000   1.0000   1.0000   1.0000   1.0000   1.0000   1.0000
     1.0000   1.0000   1.0000   1.0000   1.0000   1.0000   1.0000   1.0000
     1.0000   1.0000   1.0000   1.0000   1.0000   1.0000   1.0000   1.0000
     1.0000   1.0000   1.0000   1.0000   1.0000   1.0000   1.0000   1.0000
     1.0000   1.0000   1.0000   1.0000   1.0000   1.0000   1.0000   1.0000
     1.0000   1.0000   1.0000   1.0000   1.0000   1.0000   1.0000   1.0000
     1.0000   1.0000   1.0000   1.0000   1.0000   1.0000   1.0000   1.0000
     1.0000   1.0000   1.0000   1.0000   1.0000   1.0000   1.0000   1.0000
     1.0000   1.0000   1.0000   1.0000   1.0000   1.0000   1.0000   1.0000
     1.0000   1.0000   1.0000   1.0000   1.0000   1.0000   1.0000   1.0000
     1.0000   1.0000   1.0000   1.0000   1.0000   1.0000   1.0000   1.0000
     1.0000   1.0000   1.0000   1.0000   1.0000   1.0000   1.0000   1.0000
     1.0000   1.0000   1.0000   1.0000   1.0000   1.0000   1.0000   1.0000
     1.0000   1.0000   1.0000   1.0000   1.0000   1.0000   1.0000   1.0000
     1.0000   1.0000   1.0000   1.0000   1.0000   1.0000   1.0000   1.0000
     1.0000   1.0000   1.0000   1.0000   1.0000   1.0000   1.0000   1.0000
     1.0000   1.0000   1.0000   1.0000   1.0000   1.0000   1.0000   1.0000
     1.0000   1.0000   1.0000   1.0000   1.0000   1.0000   1.0000   1.0000
     1.0000   1.0000   1.0000   1.0000   1.0000   1.0000   1.0000   1.0000
     1.0000   1.0000   1.0000   1.0000   1.0000   1.0000   1.0000   1.0000
     1.0000   1.0000   1.0000   1.0000   1.0000   1.0000   1.0000   1.0000
     1.0000   1.0000   1.0000   1.0000   1.0000   1.0000   1.0000   1.0000
     1.0000   1.0000   1.0000   1.0000   1.0000   1.0000   1.0000   1.0000
     1.0000   1.0000   1.0000   1.0000   1.0000   1.0000   1.0000   1.0000
     1.0000   1.0000   1.0000   1.0000   1.0000   1.0000   1.0000   1.0000
     1.0000   1.0000   1.0000   1.0000   1.0000   1.0000   1.0000   1.0000
     1.0000   1.0000   1.0000   1.0000   1.0000   1.0000   1.0000   1.0000
     1.0000   1.0000   1.0000   1.0000   1.0000   1.0000   1.0000   1.0000
     1.0000   1.0000   1.0000   1.0000   1.0000   1.0000   1.0000   1.0000
     1.0000   1.0000   1.0000   1.0000   1.0000   1.0000   1.0000   1.0000
     1.0000   1.0000   1.0000   1.0000   1.0000   1.0000   1.0000   1.0000
     1.0000   1.0000   1.0000   1.0000   1.0000   1.0000   1.0000   1.0000
     1.0000   1.0000   1.0000   1.0000   1.0000   1.0000   1.0000   1.0000
     1.0000   1.0000   1.0000   1.0000   0.9999   0.9999   0.9999   0.9999
     0.9999   0.9999   0.9998   0.9998   0.9997   0.9996   0.9995   0.9993
     0.9993   0.9991   0.9989   0.9987   0.9984   0.9974   0.9967   0.9958
     0.9954   0.9942   0.9931   0.9896   0.9870   0.9837   0.9787   0.9740
     0.9704   0.9633   0.9572   0.9482   0.9288   0.9184   0.8964   0.8778
     0.8595   0.8268   0.8206   0.7395   0.7195   0.6679   0.6149   0.5898
     0.5080   0.4626   0.3904   0.3312   0.3046   0.2277   0.1926   0.1675
     0.1340   0.1124   0.0885   0.0719   0.0564   0.0433   0.0408   0.0321
     0.0245   0.0217   0.0168   0.0125   0.0097   0.0076   0.0049   0.0042
     0.0030   0.0026   0.0020   0.0014   0.0013   0.0010   0.0008   0.0006
     0.0005   0.0004   0.0003   0.0002   0.0002   0.0002   0.0001   0.0001
     0.0001   0.0001   0.0001   0.0000   0.0000   0.0000   0.0000   0.0000
     0.0000   0.0000   0.0000   0.0000   0.0000   0.0000   0.0000   0.0000
[...]
     atom   84 type  2   force =     0.00018892   -0.00009448   -0.00017250
     atom   85 type  3   force =     0.00219349   -0.00146094   -0.00109541
     atom   86 type  3   force =    -0.00139849    0.00442161    0.00148328
     atom   87 type  3   force =    -0.00363748   -0.00027985   -0.00199964
     atom   88 type  3   force =     0.00177039    0.00215417   -0.00024653
     atom   89 type  2   force =     0.00007125    0.00030256   -0.00011185
     atom   90 type  3   force =     0.00193498   -0.00429887    0.00080130
     atom   91 type  2   force =    -0.00037678    0.00016308    0.00029936
     atom   92 type  2   force =     0.00075385   -0.00017610   -0.00034933
     atom   93 type  3   force =     0.00286899   -0.00504651    0.00001696
     atom   94 type  2   force =    -0.00001800    0.00009434    0.00053516
     atom   95 type  3   force =     0.00174299    0.00010028    0.00128325
     atom   96 type  3   force =     0.00197951   -0.00004381    0.00003037
     atom   97 type  2   force =    -0.00007355    0.00006250   -0.00029319
     atom   98 type  2   force =     0.00040038   -0.00012863   -0.00043578
     atom   99 type  1   force =     0.00147529   -0.00138521   -0.00851524
     atom  100 type  1   force =     0.00010799   -0.00667025    0.00242611
     The Hubbard contrib.    to forces
     atom    1 type  2   force =     0.00000000    0.00000000    0.00000000
     atom    2 type  2   force =     0.00000000    0.00000000    0.00000000
     atom    3 type  1   force =     0.00000000    0.00000000    0.00000000
     atom    4 type  3   force =     0.00000000    0.00000000    0.00000000
     atom    5 type  3   force =     0.00000000    0.00000000    0.00000000
     atom    6 type  3   force =     0.00000000    0.00000000    0.00000000
     atom    7 type  3   force =     0.00000000    0.00000000    0.00000000
     atom    8 type  3   force =     0.00000000    0.00000000    0.00000000
     atom    9 type  3   force =     0.00000000    0.00000000    0.00000000
     atom   10 type  2   force =     0.00000000    0.00000000    0.00000000
     atom   11 type  2   force =     0.00000000    0.00000000    0.00000000
     atom   12 type  2   force =     0.00000000    0.00000000    0.00000000
     atom   13 type  3   force =     0.00000000    0.00000000    0.00000000
     atom   14 type  1   force =     0.00000000    0.00000000    0.00000000
     atom   15 type  2   force =     0.00000000    0.00000000    0.00000000
     atom   16 type  3   force =     0.00000000    0.00000000    0.00000000
     atom   17 type  2   force =     0.00000000    0.00000000    0.00000000
     atom   18 type  2   force =     0.00000000    0.00000000    0.00000000
     atom   19 type  2   force =     0.00000000    0.00000000    0.00000000
     atom   20 type  3   force =     0.00000000    0.00000000    0.00000000
     atom   21 type  3   force =     0.00000000    0.00000000    0.00000000
     atom   22 type  2   force =     0.00000000    0.00000000    0.00000000
     atom   23 type  2   force =     0.00000000    0.00000000    0.00000000
     atom   24 type  3   force =     0.00000000    0.00000000    0.00000000
     atom   25 type  3   force =     0.00000000    0.00000000    0.00000000
     atom   26 type  2   force =     0.00000000    0.00000000    0.00000000
     atom   27 type  2   force =     0.00000000    0.00000000    0.00000000
     atom   28 type  3   force =     0.00000000    0.00000000    0.00000000
     atom   29 type  2   force =     0.00000000    0.00000000    0.00000000
     atom   30 type  3   force =     0.00000000    0.00000000    0.00000000
     atom   31 type  2   force =     0.00000000    0.00000000    0.00000000
     atom   32 type  2   force =     0.00000000    0.00000000    0.00000000
     atom   33 type  2   force =     0.00000000    0.00000000    0.00000000
     atom   34 type  1   force =     0.00000000    0.00000000    0.00000000
     atom   35 type  3   force =     0.00000000    0.00000000    0.00000000
     atom   36 type  2   force =     0.00000000    0.00000000    0.00000000
     atom   37 type  2   force =     0.00000000    0.00000000    0.00000000
     atom   38 type  3   force =     0.00000000    0.00000000    0.00000000
     atom   39 type  2   force =     0.00000000    0.00000000    0.00000000
     atom   40 type  3   force =     0.00000000    0.00000000    0.00000000
     atom   41 type  2   force =     0.00000000    0.00000000    0.00000000
     atom   42 type  2   force =     0.00000000    0.00000000    0.00000000
     atom   43 type  3   force =     0.00000000    0.00000000    0.00000000
     atom   44 type  2   force =     0.00000000    0.00000000    0.00000000
     atom   45 type  3   force =     0.00000000    0.00000000    0.00000000
     atom   46 type  2   force =     0.00000000    0.00000000    0.00000000
     atom   47 type  2   force =     0.00000000    0.00000000    0.00000000
     atom   48 type  2   force =     0.00000000    0.00000000    0.00000000
     atom   49 type  3   force =     0.00000000    0.00000000    0.00000000
     atom   50 type  1   force =     0.00000000    0.00000000    0.00000000
     atom   51 type  3   force =     0.00000000    0.00000000    0.00000000
     atom   52 type  3   force =     0.00000000    0.00000000    0.00000000
     atom   53 type  3   force =     0.00000000    0.00000000    0.00000000
     atom   54 type  2   force =     0.00000000    0.00000000    0.00000000
     atom   55 type  3   force =     0.00000000    0.00000000    0.00000000
     atom   56 type  2   force =     0.00000000    0.00000000    0.00000000
     atom   57 type  2   force =     0.00000000    0.00000000    0.00000000
     atom   58 type  2   force =     0.00000000    0.00000000    0.00000000
     atom   59 type  3   force =     0.00000000    0.00000000    0.00000000
     atom   60 type  3   force =     0.00000000    0.00000000    0.00000000
     atom   61 type  2   force =     0.00000000    0.00000000    0.00000000
     atom   62 type  1   force =     0.00000000    0.00000000    0.00000000
     atom   63 type  3   force =     0.00000000    0.00000000    0.00000000
     atom   64 type  2   force =     0.00000000    0.00000000    0.00000000
     atom   65 type  3   force =     0.00000000    0.00000000    0.00000000
     atom   66 type  2   force =     0.00000000    0.00000000    0.00000000
     atom   67 type  2   force =     0.00000000    0.00000000    0.00000000
     atom   68 type  3   force =     0.00000000    0.00000000    0.00000000
     atom   69 type  3   force =     0.00000000    0.00000000    0.00000000
     atom   70 type  2   force =     0.00000000    0.00000000    0.00000000
     atom   71 type  1   force =     0.00000000    0.00000000    0.00000000
     atom   72 type  2   force =     0.00000000    0.00000000    0.00000000
     atom   73 type  3   force =     0.00000000    0.00000000    0.00000000
     atom   74 type  1   force =     0.00000000    0.00000000    0.00000000
     atom   75 type  2   force =     0.00000000    0.00000000    0.00000000
     atom   76 type  3   force =     0.00000000    0.00000000    0.00000000
     atom   77 type  3   force =     0.00000000    0.00000000    0.00000000
     atom   78 type  3   force =     0.00000000    0.00000000    0.00000000
     atom   79 type  3   force =     0.00000000    0.00000000    0.00000000
     atom   80 type  3   force =     0.00000000    0.00000000    0.00000000
     atom   81 type  2   force =     0.00000000    0.00000000    0.00000000
     atom   82 type  1   force =     0.00000000    0.00000000    0.00000000
     atom   83 type  3   force =     0.00000000    0.00000000    0.00000000
     atom   84 type  2   force =     0.00000000    0.00000000    0.00000000
     atom   85 type  3   force =     0.00000000    0.00000000    0.00000000
     atom   86 type  3   force =     0.00000000    0.00000000    0.00000000
     atom   87 type  3   force =     0.00000000    0.00000000    0.00000000
     atom   88 type  3   force =     0.00000000    0.00000000    0.00000000
     atom   89 type  2   force =     0.00000000    0.00000000    0.00000000
     atom   90 type  3   force =     0.00000000    0.00000000    0.00000000
     atom   91 type  2   force =     0.00000000    0.00000000    0.00000000
     atom   92 type  2   force =     0.00000000    0.00000000    0.00000000
     atom   93 type  3   force =     0.00000000    0.00000000    0.00000000
     atom   94 type  2   force =     0.00000000    0.00000000    0.00000000
     atom   95 type  3   force =     0.00000000    0.00000000    0.00000000
     atom   96 type  3   force =     0.00000000    0.00000000    0.00000000
     atom   97 type  2   force =     0.00000000    0.00000000    0.00000000
     atom   98 type  2   force =     0.00000000    0.00000000    0.00000000
     atom   99 type  1   force =     0.00000000    0.00000000    0.00000000
     atom  100 type  1   force =     0.00000000    0.00000000    0.00000000
     The SCF correction term to forces
     atom    1 type  2   force =     0.00024685   -0.00088593    0.00003298
     atom    2 type  2   force =     0.00055760   -0.00060112    0.00065571
     atom    3 type  1   force =    -0.00003230   -0.00017028    0.00010895
     atom    4 type  3   force =    -0.00032705   -0.00047556   -0.00007603
     atom    5 type  3   force =    -0.00026840   -0.00057217   -0.00053102
     atom    6 type  3   force =    -0.00013545    0.00031384   -0.00034543
     atom    7 type  3   force =    -0.00033857   -0.00040745    0.00035197
     atom    8 type  3   force =    -0.00018232   -0.00025418    0.00038877
     atom    9 type  3   force =    -0.00008265   -0.00048226   -0.00000052
     atom   10 type  2   force =    -0.00001712    0.00007664   -0.00068234
     atom   11 type  2   force =    -0.00036427    0.00106110   -0.00024062
     atom   12 type  2   force =    -0.00007437    0.00101211    0.00003804
     atom   13 type  3   force =     0.00003193    0.00065023    0.00029030
     atom   14 type  1   force =     0.00001250    0.00012364    0.00006716
     atom   15 type  2   force =     0.00025761    0.00071894    0.00038200
     atom   16 type  3   force =     0.00006221    0.00022538   -0.00005023
     atom   17 type  2   force =     0.00004082    0.00094883   -0.00059842
     atom   18 type  2   force =    -0.00002534    0.00048404   -0.00029874
     atom   19 type  2   force =    -0.00016400   -0.00064615   -0.00032427
     atom   20 type  3   force =    -0.00008759   -0.00036274    0.00021419
     atom   21 type  3   force =    -0.00012496   -0.00011371    0.00023405
     atom   22 type  2   force =     0.00016190    0.00087952   -0.00004986
     atom   23 type  2   force =    -0.00035409   -0.00032916   -0.00069105
     atom   24 type  3   force =     0.00005269    0.00040610   -0.00022115
     atom   25 type  3   force =    -0.00013571   -0.00058823   -0.00014650
     atom   26 type  2   force =     0.00004784   -0.00034653   -0.00061957
     atom   27 type  2   force =     0.00024798    0.00031115    0.00041421
     atom   28 type  3   force =    -0.00018308   -0.00038609    0.00048142
     atom   29 type  2   force =    -0.00013715    0.00044631    0.00016164
     atom   30 type  3   force =    -0.00029087   -0.00026577    0.00018549
     atom   31 type  2   force =    -0.00063294   -0.00092938   -0.00079895
     atom   32 type  2   force =    -0.00011206   -0.00009798   -0.00095329
     atom   33 type  2   force =    -0.00025723    0.00089418    0.00013889
     atom   34 type  1   force =     0.00003862    0.00009090    0.00008564
     atom   35 type  3   force =     0.00007197    0.00024777    0.00039322
     atom   36 type  2   force =     0.00011308    0.00065804    0.00061349
     atom   37 type  2   force =    -0.00016973    0.00055500   -0.00050915
     atom   38 type  3   force =    -0.00028290    0.00040583   -0.00036579
     atom   39 type  2   force =    -0.00035171    0.00099253   -0.00029467
     atom   40 type  3   force =    -0.00043426   -0.00014036    0.00022136
     atom   41 type  2   force =    -0.00001930    0.00065731    0.00054810
     atom   42 type  2   force =    -0.00056569   -0.00015470   -0.00029008
     atom   43 type  3   force =     0.00004054    0.00046381   -0.00012156
     atom   44 type  2   force =    -0.00074260    0.00013464   -0.00044631
     atom   45 type  3   force =    -0.00043850   -0.00042660   -0.00006513
     atom   46 type  2   force =    -0.00048003   -0.00113714    0.00042509
     atom   47 type  2   force =    -0.00091851   -0.00095468    0.00051321
     atom   48 type  2   force =    -0.00096783   -0.00007974    0.00016049
     atom   49 type  3   force =    -0.00054478   -0.00030958   -0.00023729
     atom   50 type  1   force =     0.00010302    0.00001985    0.00002629
     atom   51 type  3   force =     0.00026588    0.00021170    0.00026683
     atom   52 type  3   force =     0.00023061    0.00023677   -0.00012334
     atom   53 type  3   force =    -0.00007232   -0.00003944   -0.00031633
     atom   54 type  2   force =     0.00060355    0.00002461   -0.00032561
     atom   55 type  3   force =     0.00006038    0.00026139   -0.00009627
     atom   56 type  2   force =    -0.00017881    0.00008312    0.00016907
     atom   57 type  2   force =     0.00017022    0.00037535    0.00053927
     atom   58 type  2   force =     0.00005568    0.00023154    0.00038047
     atom   59 type  3   force =    -0.00017811    0.00019192    0.00035193
     atom   60 type  3   force =    -0.00018610    0.00023744   -0.00000085
     atom   61 type  2   force =    -0.00010384    0.00046294   -0.00063165
     atom   62 type  1   force =     0.00002037    0.00002245   -0.00007561
     atom   63 type  3   force =    -0.00033343   -0.00010344   -0.00006226
     atom   64 type  2   force =    -0.00019700   -0.00052003    0.00039561
     atom   65 type  3   force =    -0.00025840   -0.00031656    0.00014860
     atom   66 type  2   force =    -0.00002701   -0.00034958    0.00029167
     atom   67 type  2   force =    -0.00001684   -0.00010248   -0.00037984
     atom   68 type  3   force =    -0.00002561   -0.00017872   -0.00027319
     atom   69 type  3   force =     0.00015568   -0.00017160    0.00003072
     atom   70 type  2   force =    -0.00012518   -0.00049022    0.00046741
     atom   71 type  1   force =     0.00003823   -0.00001117    0.00002240
     atom   72 type  2   force =    -0.00014784   -0.00043870   -0.00008870
     atom   73 type  3   force =     0.00036066    0.00003245   -0.00013842
     atom   74 type  1   force =    -0.00003803   -0.00008610   -0.00007877
     atom   75 type  2   force =     0.00035916   -0.00054198   -0.00028025
     atom   76 type  3   force =     0.00016027   -0.00024567    0.00027976
     atom   77 type  3   force =     0.00055072    0.00025280    0.00014485
     atom   78 type  3   force =     0.00042625   -0.00019022   -0.00022540
     atom   79 type  3   force =     0.00051276    0.00007279   -0.00029989
     atom   80 type  3   force =     0.00059385    0.00001331   -0.00022206
     atom   81 type  2   force =     0.00014168   -0.00013190   -0.00013035
     atom   82 type  1   force =    -0.00005963   -0.00002557    0.00000216
     atom   83 type  3   force =    -0.00009299   -0.00014664    0.00028269
     atom   84 type  2   force =     0.00059574   -0.00022515    0.00060953
     atom   85 type  3   force =     0.00016656   -0.00023294   -0.00006480
     atom   86 type  3   force =    -0.00003371   -0.00034148   -0.00036436
     atom   87 type  3   force =    -0.00001686   -0.00006782   -0.00013728
     atom   88 type  3   force =    -0.00001605    0.00034988    0.00018964
     atom   89 type  2   force =     0.00045756    0.00022386    0.00016860
     atom   90 type  3   force =     0.00001049   -0.00009066   -0.00002073
     atom   91 type  2   force =    -0.00022061   -0.00019073    0.00025104
     atom   92 type  2   force =    -0.00007497   -0.00029128   -0.00039335
     atom   93 type  3   force =     0.00027497    0.00046503   -0.00011930
     atom   94 type  2   force =     0.00056886    0.00007756   -0.00033429
     atom   95 type  3   force =     0.00050390    0.00012319    0.00007808
     atom   96 type  3   force =     0.00014676    0.00002410    0.00024353
     atom   97 type  2   force =     0.00055114    0.00066977    0.00028029
     atom   98 type  2   force =     0.00044803    0.00083721    0.00017420
     atom   99 type  1   force =     0.00012045    0.00011453   -0.00001270
     atom  100 type  1   force =     0.00006024    0.00005784   -0.00003085

     Total force =     1.047493     Total SCF correction =     0.006426

     Writing output data file Zr45Cu45Al10.save
 
     init_run     :     36.59s CPU     37.49s WALL (       1 calls)
     electrons    :   5509.34s CPU   5599.74s WALL (       1 calls)
     forces       :     22.60s CPU     23.29s WALL (       1 calls)

     Called by init_run:
     wfcinit      :     29.44s CPU     29.75s WALL (       1 calls)
     wfcinit:atom :      0.06s CPU      0.09s WALL (       1 calls)
     wfcinit:wfcr :     29.11s CPU     29.34s WALL (       1 calls)
     potinit      :      1.24s CPU      1.31s WALL (       1 calls)

     Called by electrons:
     c_bands      :   4655.06s CPU   4707.42s WALL (      52 calls)
     sum_band     :    723.96s CPU    743.21s WALL (      52 calls)
     v_of_rho     :     21.92s CPU     22.63s WALL (      53 calls)
     v_h          :      2.09s CPU      2.15s WALL (      53 calls)
     v_xc         :     20.21s CPU     20.86s WALL (      54 calls)
     newd         :     89.44s CPU    106.53s WALL (      53 calls)
     PAW_pot      :      9.28s CPU      9.53s WALL (      53 calls)
     mix_rho      :      5.47s CPU      5.78s WALL (      52 calls)

     Called by c_bands:
     init_us_2    :      9.61s CPU      9.70s WALL (     105 calls)
     cegterg      :   4288.45s CPU   4332.07s WALL (      52 calls)

     Called by sum_band:
     sum_band:bec :      1.25s CPU      1.26s WALL (      52 calls)
     addusdens    :    125.57s CPU    141.36s WALL (      52 calls)

     Called by *egterg:
     h_psi        :   1951.90s CPU   1962.35s WALL (     133 calls)
     s_psi        :    389.70s CPU    390.66s WALL (     133 calls)
     g_psi        :      2.50s CPU      2.51s WALL (      80 calls)
     cdiaghg      :    826.16s CPU    837.87s WALL (     132 calls)
     cegterg:over :    453.92s CPU    456.01s WALL (      80 calls)
     cegterg:upda :    269.95s CPU    271.01s WALL (      80 calls)
     cegterg:last :    238.87s CPU    238.96s WALL (      52 calls)
     cdiaghg:chol :     42.60s CPU     42.99s WALL (     132 calls)
     cdiaghg:inve :     52.97s CPU     53.49s WALL (     132 calls)
     cdiaghg:para :    124.59s CPU    129.56s WALL (     264 calls)

     Called by h_psi:
     h_psi:pot    :   1944.29s CPU   1954.73s WALL (     133 calls)
     h_psi:calbec :    377.18s CPU    377.80s WALL (     133 calls)
     vloc_psi     :   1186.31s CPU   1194.99s WALL (     133 calls)
     add_vuspsi   :    380.79s CPU    381.93s WALL (     133 calls)

     General routines
     calbec       :    572.81s CPU    573.75s WALL (     189 calls)
     fft          :     28.54s CPU     29.74s WALL (     855 calls)
     ffts         :      0.68s CPU      0.72s WALL (     105 calls)
     fftw         :   1060.01s CPU   1067.84s WALL (  276716 calls)
     interpolate  :      4.53s CPU      4.75s WALL (     105 calls)
 
     Parallel routines
     fft_scatt_xy :     91.39s CPU     91.76s WALL (  277676 calls)
     fft_scatt_yz :    214.54s CPU    217.50s WALL (  277676 calls)

     PAW routines
     PAW_pot      :      9.28s CPU      9.53s WALL (      53 calls)
 
     PWSCF        :     1h37m CPU        1h39m WALL

 
   This run was terminated on:  20:54: 6  20May2019            

=------------------------------------------------------------------------------=
   JOB DONE.
=------------------------------------------------------------------------------=
