
     Program PWSCF v.6.2 (svn rev. 13949:13950) starts on 19Apr2019 at 17:25:16 

     This program is part of the open-source Quantum ESPRESSO suite
     for quantum simulation of materials; please cite
         "P. Giannozzi et al., J. Phys.:Condens. Matter 21 395502 (2009);
         "P. Giannozzi et al., J. Phys.:Condens. Matter 29 465901 (2017);
          URL http://www.quantum-espresso.org", 
     in publications or presentations arising from this work. More details at
     http://www.quantum-espresso.org/quote

     Parallel version (MPI & OpenMP), running on     192 processor cores
     Number of MPI processes:               192
     Threads/MPI process:                     1

     MPI processes distributed on     8 nodes
     K-points division:     npool     =       8
     R & G space division:  proc/nbgrp/npool/nimage =      24
     Waiting for input...
     Reading input from standard input

     Current dimensions of program PWSCF are:
     Max number of different atomic species (ntypx) = 10
     Max number of k-points (npk) =  40000
     Max angular momentum in pseudopotentials (lmaxx) =  3
               file Al.aryjr-1.0.0-ld1.UPF: wavefunction(s)  3S 3P renormalized
               file Cu.aryjr-1.0.0-ld1.UPF: wavefunction(s)  4S 3P 3D renormalized
               file Zr.aryjr-1.0.0-ld1.UPF: wavefunction(s)  4S 4P renormalized

     Subspace diagonalization in iterative solution of the eigenvalue problem:
     one sub-group per band group will be used
     scalapack distributed-memory algorithm (size of sub-group:  3*  3 procs)

 
     Parallelization info
     --------------------
     sticks:   dense  smooth     PW     G-vecs:    dense   smooth      PW
     Min         979     489    125               111711    39497    5149
     Max         980     490    126               111716    39500    5154
     Sum       23497   11743   3015              2681107   947955  123651
 

     Title: 
     Zr49Cu49Al2                                                                


     bravais-lattice index     =            0
     lattice parameter (alat)  =      23.1850  a.u.
     unit-cell volume          =   11979.0538 (a.u.)^3
     number of atoms/cell      =          100
     number of atomic types    =            3
     number of electrons       =      1525.00
     number of Kohn-Sham states=         1086
     kinetic-energy cutoff     =      70.0000  Ry
     charge density cutoff     =     560.0000  Ry
     convergence threshold     =      1.0E-06
     mixing beta               =       0.4000
     number of iterations used =            8  plain     mixing
     Exchange-correlation      =  SLA  PW   PBX  PBC ( 1  4  3  4 0 0)

     celldm(1)=  23.185027  celldm(2)=   0.000000  celldm(3)=   0.000000
     celldm(4)=   0.000000  celldm(5)=   0.000000  celldm(6)=   0.000000

     crystal axes: (cart. coord. in units of alat)
               a(1) = (   1.000000   0.000000   0.000000 )  
               a(2) = (   0.000000   0.980392   0.000000 )  
               a(3) = (   0.000000   0.000000   0.980392 )  

     reciprocal axes: (cart. coord. in units 2 pi/alat)
               b(1) = (  1.000000  0.000000  0.000000 )  
               b(2) = (  0.000000  1.020000  0.000000 )  
               b(3) = (  0.000000  0.000000  1.020000 )  


     PseudoPot. # 1 for Al read from file:
     /scratch/rmnvm/ary.junior/UPFs/Al.aryjr-1.0.0-ld1.UPF
     MD5 check sum: 23518be3108914e66f28d0b5ae5ea896
     Pseudo is Projector augmented-wave + core cor, Zval =  3.0
     Generated using "atomic" code by A. Dal Corso  v.5.3.0 svn rev. 11974
     Shape of augmentation charge: PSQ
     Using radial grid of 1135 points,  4 beta functions with: 
                l(1) =   0
                l(2) =   0
                l(3) =   1
                l(4) =   1
     Q(r) pseudized with 0 coefficients 


     PseudoPot. # 2 for Cu read from file:
     /scratch/rmnvm/ary.junior/UPFs/Cu.aryjr-1.0.0-ld1.UPF
     MD5 check sum: 9308548b6d8348cb0f7fa79efd90ef1e
     Pseudo is Projector augmented-wave + core cor, Zval = 19.0
     Generated using "atomic" code by A. Dal Corso  v.5.3.0 svn rev. 11974
     Shape of augmentation charge: PSQ
     Using radial grid of 1199 points,  6 beta functions with: 
                l(1) =   0
                l(2) =   0
                l(3) =   1
                l(4) =   1
                l(5) =   2
                l(6) =   2
     Q(r) pseudized with 0 coefficients 


     PseudoPot. # 3 for Zr read from file:
     /scratch/rmnvm/ary.junior/UPFs/Zr.aryjr-1.0.0-ld1.UPF
     MD5 check sum: 20f111a850f3481eb9ed9a4dbb9cca44
     Pseudo is Projector augmented-wave + core cor, Zval = 12.0
     Generated using "atomic" code by A. Dal Corso  v.5.3.0 svn rev. 11974
     Shape of augmentation charge: PSQ
     Using radial grid of 1225 points,  6 beta functions with: 
                l(1) =   0
                l(2) =   0
                l(3) =   1
                l(4) =   1
                l(5) =   2
                l(6) =   2
     Q(r) pseudized with 0 coefficients 


     atomic species   valence    mass     pseudopotential
        Al             3.00    26.98150     Al( 1.00)
        Cu            19.00    63.54630     Cu( 1.00)
        Zr            12.00    91.22400     Zr( 1.00)

     No symmetry found


                                    s                        frac. trans.

      isym =  1     identity                                     

 cryst.   s( 1) = (     1          0          0      )
                  (     0          1          0      )
                  (     0          0          1      )

 cart.    s( 1) = (  1.0000000  0.0000000  0.0000000 )
                  (  0.0000000  1.0000000  0.0000000 )
                  (  0.0000000  0.0000000  1.0000000 )


   Cartesian axes

     site n.     atom                  positions (alat units)
         1           Cu  tau(   1) = (   0.1532540   0.2232931   0.1537108  )
         2           Zr  tau(   2) = (   0.2632450  -0.0186343   0.1752971  )
         3           Cu  tau(   3) = (   0.1770600   0.1289824   0.3307598  )
         4           Cu  tau(   4) = (   0.1041000   0.0599147   0.5797912  )
         5           Zr  tau(   5) = (   0.0179050   0.0320775   0.7800981  )
         6           Cu  tau(   6) = (   0.2603280   0.0643471   0.7282559  )
         7           Cu  tau(   7) = (   0.1177750   0.1003637   0.9668981  )
         8           Cu  tau(   8) = (   0.2607600   0.3480226   0.0450343  )
         9           Zr  tau(   9) = (  -0.0132520   0.2664441   0.3005049  )
        10           Cu  tau(  10) = (   0.2185700   0.3221177   0.3302284  )
        11           Zr  tau(  11) = (   0.1152240   0.4607098   0.1611206  )
        12           Zr  tau(  12) = (   0.0615040   0.4855157   0.4258735  )
        13           Zr  tau(  13) = (   0.1385390   0.2473735   0.7907000  )
        14           Zr  tau(  14) = (   0.1772030   0.4515647   0.6491128  )
        15           Cu  tau(  15) = (   0.1140550   0.4700883   0.9123902  )
        16           Zr  tau(  16) = (   0.1178980   0.6860265   0.0169176  )
        17           Cu  tau(  17) = (   0.0775240   0.7180716   0.4109530  )
        18           Cu  tau(  18) = (   0.0595990   0.6521265   0.6012030  )
        19           Zr  tau(  19) = (   0.2258380   0.6605049   0.7703883  )
        20           Cu  tau(  20) = (  -0.0091150   0.5982245   0.7919363  )
        21           Cu  tau(  21) = (   0.0411810   0.9031255  -0.0198225  )
        22           Cu  tau(  22) = (   0.1181520   0.8069147   0.2193647  )
        23           Zr  tau(  23) = (   0.1762560   0.9068755   0.4223912  )
        24           Cu  tau(  24) = (   0.0470770   0.7883628   0.7800285  )
        25           Cu  tau(  25) = (   0.1929970   0.8588618   0.6573069  )
        26           Zr  tau(  26) = (   0.3771530   0.2192137   0.2063892  )
        27           Cu  tau(  27) = (   0.5030380   0.0363353   0.2335598  )
        28           Cu  tau(  28) = (   0.3667550   0.0661824   0.3768441  )
        29           Zr  tau(  29) = (   0.2658580   0.2146059   0.5349383  )
        30           Cu  tau(  30) = (   0.3727640   0.2225000   0.7393588  )
        31           Zr  tau(  31) = (   0.4909010   0.0261324   0.8053932  )
        32           Zr  tau(  32) = (   0.3344380   0.1508422   0.9564275  )
        33           Zr  tau(  33) = (   0.5010310   0.4094824   0.0349196  )
        34           Al  tau(  34) = (   0.3891260   0.4452128   0.2457784  )
        35           Cu  tau(  35) = (   0.4270120   0.3230392   0.4099235  )
        36           Cu  tau(  36) = (   0.2812900   0.4692333   0.4458049  )
        37           Zr  tau(  37) = (   0.4431220   0.4131324   0.6177726  )
        38           Zr  tau(  38) = (   0.3330890   0.4454520   0.8319638  )
        39           Cu  tau(  39) = (   0.3161030   0.5349971   0.0727804  )
        40           Zr  tau(  40) = (   0.2556010   0.6310412   0.2959088  )
        41           Zr  tau(  41) = (   0.4786970   0.5662667   0.4306010  )
        42           Zr  tau(  42) = (   0.2806530   0.6815863   0.5428314  )
        43           Cu  tau(  43) = (   0.4540980   0.6215461   0.6801873  )
        44           Zr  tau(  44) = (   0.4302580   0.6759049   0.9206402  )
        45           Cu  tau(  45) = (   0.3223560   0.7508794   0.1047794  )
        46           Zr  tau(  46) = (   0.4766140   0.9140490   0.0514618  )
        47           Zr  tau(  47) = (   0.4135570   0.8118245   0.3348784  )
        48           Zr  tau(  48) = (   0.3922520   0.9489834   0.5738579  )
        49           Cu  tau(  49) = (   0.3999990   0.8036353   0.7413657  )
        50           Zr  tau(  50) = (   0.2492660   0.8899687   0.8933157  )
        51           Zr  tau(  51) = (   0.5957130   0.1609000   0.0486990  )
        52           Zr  tau(  52) = (   0.7575530   0.0781373   0.2297922  )
        53           Cu  tau(  53) = (   0.5410490   0.1694324   0.3592069  )
        54           Zr  tau(  54) = (   0.5357240   0.1783559   0.5873657  )
        55           Zr  tau(  55) = (   0.6936450   0.1327039   0.7842981  )
        56           Cu  tau(  56) = (   0.6996980   0.4841932   0.1212010  )
        57           Zr  tau(  57) = (   0.6154380   0.3427608   0.2557520  )
        58           Cu  tau(  58) = (   0.6163860   0.3754030   0.4803510  )
        59           Zr  tau(  59) = (   0.7406390   0.3358618   0.6616049  )
        60           Zr  tau(  60) = (   0.7412480   0.3505588   0.9192706  )
        61           Cu  tau(  61) = (   0.5350970   0.2885628   0.8155892  )
        62           Zr  tau(  62) = (   0.5219300   0.6473167   0.1767431  )
        63           Cu  tau(  63) = (   0.6764360   0.5316334   0.3442912  )
        64           Cu  tau(  64) = (   0.6518880   0.7343941   0.3737216  )
        65           Zr  tau(  65) = (   0.6685970   0.5677392   0.6073088  )
        66           Cu  tau(  66) = (   0.5727900   0.4981079   0.8017745  )
        67           Cu  tau(  67) = (   0.6643170   0.5968539   0.9506157  )
        68           Cu  tau(  68) = (   0.6453030   0.7755588   0.0282931  )
        69           Cu  tau(  69) = (   0.6369180   0.8694471   0.2353049  )
        70           Zr  tau(  70) = (   0.6303260   0.9568608   0.4311265  )
        71           Cu  tau(  71) = (   0.5295050   0.7642049   0.5681432  )
        72           Cu  tau(  72) = (   0.6242650   0.9423010   0.6395079  )
        73           Zr  tau(  73) = (   0.6264570   0.7507020   0.7704020  )
        74           Cu  tau(  74) = (   0.6866730   0.9340500   0.9176520  )
        75           Cu  tau(  75) = (   0.7980740   0.2634471   0.1273000  )
        76           Zr  tau(  76) = (   1.0111800   0.0288804   0.1853990  )
        77           Zr  tau(  77) = (   0.7674370   0.2206441   0.4216647  )
        78           Cu  tau(  78) = (   0.9704410   0.0862922   0.4271157  )
        79           Zr  tau(  79) = (   0.8233740   0.0710686   0.5900010  )
        80           Cu  tau(  80) = (   0.8934150   0.2154000   0.7844490  )
        81           Zr  tau(  81) = (   0.8687050   0.0833069   0.9583265  )
        82           Zr  tau(  82) = (   0.9982840   0.2883392   0.0343167  )
        83           Zr  tau(  83) = (   0.8616490   0.4519422   0.2470716  )
        84           Cu  tau(  84) = (   0.8132930   0.4265667   0.4697608  )
        85           Zr  tau(  85) = (   0.9981660   0.2698843   0.5692186  )
        86           Cu  tau(  86) = (   0.9756890   0.3959255   0.8015196  )
        87           Zr  tau(  87) = (   0.9133460   0.5377010   0.0243912  )
        88           Zr  tau(  88) = (   0.7753420   0.6847520   0.1878471  )
        89           Al  tau(  89) = (   1.0048900   0.6420343   0.2428726  )
        90           Zr  tau(  90) = (   0.8636860   0.6409010   0.4523843  )
        91           Cu  tau(  91) = (   0.9239290   0.4883677   0.6294677  )
        92           Cu  tau(  92) = (   0.8484040   0.7037608   0.6874530  )
        93           Cu  tau(  93) = (   0.7838010   0.5451255   0.8039010  )
        94           Cu  tau(  94) = (   0.9491700   0.7855647   0.1248745  )
        95           Cu  tau(  95) = (   0.7960670   0.8922824   0.0981627  )
        96           Zr  tau(  96) = (   0.8820060   0.8557873   0.3380157  )
        97           Zr  tau(  97) = (   0.9756070   0.8564579   0.5740000  )
        98           Cu  tau(  98) = (   0.7438140   0.8078520   0.5610010  )
        99           Cu  tau(  99) = (   0.8036460   0.8988334   0.7464736  )
       100           Zr  tau( 100) = (   0.8574510   0.7624000   0.8974736  )

   Crystallographic axes

     site n.     atom                  positions (cryst. coord.)
         1           Cu  tau(   1) = (  0.1532540  0.2277590  0.1567850  )
         2           Zr  tau(   2) = (  0.2632450 -0.0190070  0.1788030  )
         3           Cu  tau(   3) = (  0.1770600  0.1315620  0.3373750  )
         4           Cu  tau(   4) = (  0.1041000  0.0611130  0.5913870  )
         5           Zr  tau(   5) = (  0.0179050  0.0327190  0.7957000  )
         6           Cu  tau(   6) = (  0.2603280  0.0656340  0.7428210  )
         7           Cu  tau(   7) = (  0.1177750  0.1023710  0.9862360  )
         8           Cu  tau(   8) = (  0.2607600  0.3549830  0.0459350  )
         9           Zr  tau(   9) = ( -0.0132520  0.2717730  0.3065150  )
        10           Cu  tau(  10) = (  0.2185700  0.3285600  0.3368330  )
        11           Zr  tau(  11) = (  0.1152240  0.4699240  0.1643430  )
        12           Zr  tau(  12) = (  0.0615040  0.4952260  0.4343910  )
        13           Zr  tau(  13) = (  0.1385390  0.2523210  0.8065140  )
        14           Zr  tau(  14) = (  0.1772030  0.4605960  0.6620950  )
        15           Cu  tau(  15) = (  0.1140550  0.4794900  0.9306380  )
        16           Zr  tau(  16) = (  0.1178980  0.6997470  0.0172560  )
        17           Cu  tau(  17) = (  0.0775240  0.7324330  0.4191720  )
        18           Cu  tau(  18) = (  0.0595990  0.6651690  0.6132270  )
        19           Zr  tau(  19) = (  0.2258380  0.6737150  0.7857960  )
        20           Cu  tau(  20) = ( -0.0091150  0.6101890  0.8077750  )
        21           Cu  tau(  21) = (  0.0411810  0.9211880 -0.0202190  )
        22           Cu  tau(  22) = (  0.1181520  0.8230530  0.2237520  )
        23           Zr  tau(  23) = (  0.1762560  0.9250130  0.4308390  )
        24           Cu  tau(  24) = (  0.0470770  0.8041300  0.7956290  )
        25           Cu  tau(  25) = (  0.1929970  0.8760390  0.6704530  )
        26           Zr  tau(  26) = (  0.3771530  0.2235980  0.2105170  )
        27           Cu  tau(  27) = (  0.5030380  0.0370620  0.2382310  )
        28           Cu  tau(  28) = (  0.3667550  0.0675060  0.3843810  )
        29           Zr  tau(  29) = (  0.2658580  0.2188980  0.5456370  )
        30           Cu  tau(  30) = (  0.3727640  0.2269500  0.7541460  )
        31           Zr  tau(  31) = (  0.4909010  0.0266550  0.8215010  )
        32           Zr  tau(  32) = (  0.3344380  0.1538590  0.9755560  )
        33           Zr  tau(  33) = (  0.5010310  0.4176720  0.0356180  )
        34           Al  tau(  34) = (  0.3891260  0.4541170  0.2506940  )
        35           Cu  tau(  35) = (  0.4270120  0.3295000  0.4181220  )
        36           Cu  tau(  36) = (  0.2812900  0.4786180  0.4547210  )
        37           Zr  tau(  37) = (  0.4431220  0.4213950  0.6301280  )
        38           Zr  tau(  38) = (  0.3330890  0.4543610  0.8486030  )
        39           Cu  tau(  39) = (  0.3161030  0.5456970  0.0742360  )
        40           Zr  tau(  40) = (  0.2556010  0.6436620  0.3018270  )
        41           Zr  tau(  41) = (  0.4786970  0.5775920  0.4392130  )
        42           Zr  tau(  42) = (  0.2806530  0.6952180  0.5536880  )
        43           Cu  tau(  43) = (  0.4540980  0.6339770  0.6937910  )
        44           Zr  tau(  44) = (  0.4302580  0.6894230  0.9390530  )
        45           Cu  tau(  45) = (  0.3223560  0.7658970  0.1068750  )
        46           Zr  tau(  46) = (  0.4766140  0.9323300  0.0524910  )
        47           Zr  tau(  47) = (  0.4135570  0.8280610  0.3415760  )
        48           Zr  tau(  48) = (  0.3922520  0.9679630  0.5853350  )
        49           Cu  tau(  49) = (  0.3999990  0.8197080  0.7561930  )
        50           Zr  tau(  50) = (  0.2492660  0.9077680  0.9111820  )
        51           Zr  tau(  51) = (  0.5957130  0.1641180  0.0496730  )
        52           Zr  tau(  52) = (  0.7575530  0.0797000  0.2343880  )
        53           Cu  tau(  53) = (  0.5410490  0.1728210  0.3663910  )
        54           Zr  tau(  54) = (  0.5357240  0.1819230  0.5991130  )
        55           Zr  tau(  55) = (  0.6936450  0.1353580  0.7999840  )
        56           Cu  tau(  56) = (  0.6996980  0.4938770  0.1236250  )
        57           Zr  tau(  57) = (  0.6154380  0.3496160  0.2608670  )
        58           Cu  tau(  58) = (  0.6163860  0.3829110  0.4899580  )
        59           Zr  tau(  59) = (  0.7406390  0.3425790  0.6748370  )
        60           Zr  tau(  60) = (  0.7412480  0.3575700  0.9376560  )
        61           Cu  tau(  61) = (  0.5350970  0.2943340  0.8319010  )
        62           Zr  tau(  62) = (  0.5219300  0.6602630  0.1802780  )
        63           Cu  tau(  63) = (  0.6764360  0.5422660  0.3511770  )
        64           Cu  tau(  64) = (  0.6518880  0.7490820  0.3811960  )
        65           Zr  tau(  65) = (  0.6685970  0.5790940  0.6194550  )
        66           Cu  tau(  66) = (  0.5727900  0.5080700  0.8178100  )
        67           Cu  tau(  67) = (  0.6643170  0.6087910  0.9696280  )
        68           Cu  tau(  68) = (  0.6453030  0.7910700  0.0288590  )
        69           Cu  tau(  69) = (  0.6369180  0.8868360  0.2400110  )
        70           Zr  tau(  70) = (  0.6303260  0.9759980  0.4397490  )
        71           Cu  tau(  71) = (  0.5295050  0.7794890  0.5795060  )
        72           Cu  tau(  72) = (  0.6242650  0.9611470  0.6522980  )
        73           Zr  tau(  73) = (  0.6264570  0.7657160  0.7858100  )
        74           Cu  tau(  74) = (  0.6866730  0.9527310  0.9360050  )
        75           Cu  tau(  75) = (  0.7980740  0.2687160  0.1298460  )
        76           Zr  tau(  76) = (  1.0111800  0.0294580  0.1891070  )
        77           Zr  tau(  77) = (  0.7674370  0.2250570  0.4300980  )
        78           Cu  tau(  78) = (  0.9704410  0.0880180  0.4356580  )
        79           Zr  tau(  79) = (  0.8233740  0.0724900  0.6018010  )
        80           Cu  tau(  80) = (  0.8934150  0.2197080  0.8001380  )
        81           Zr  tau(  81) = (  0.8687050  0.0849730  0.9774930  )
        82           Zr  tau(  82) = (  0.9982840  0.2941060  0.0350030  )
        83           Zr  tau(  83) = (  0.8616490  0.4609810  0.2520130  )
        84           Cu  tau(  84) = (  0.8132930  0.4350980  0.4791560  )
        85           Zr  tau(  85) = (  0.9981660  0.2752820  0.5806030  )
        86           Cu  tau(  86) = (  0.9756890  0.4038440  0.8175500  )
        87           Zr  tau(  87) = (  0.9133460  0.5484550  0.0248790  )
        88           Zr  tau(  88) = (  0.7753420  0.6984470  0.1916040  )
        89           Al  tau(  89) = (  1.0048900  0.6548750  0.2477300  )
        90           Zr  tau(  90) = (  0.8636860  0.6537190  0.4614320  )
        91           Cu  tau(  91) = (  0.9239290  0.4981350  0.6420570  )
        92           Cu  tau(  92) = (  0.8484040  0.7178360  0.7012020  )
        93           Cu  tau(  93) = (  0.7838010  0.5560280  0.8199790  )
        94           Cu  tau(  94) = (  0.9491700  0.8012760  0.1273720  )
        95           Cu  tau(  95) = (  0.7960670  0.9101280  0.1001260  )
        96           Zr  tau(  96) = (  0.8820060  0.8729030  0.3447760  )
        97           Zr  tau(  97) = (  0.9756070  0.8735870  0.5854800  )
        98           Cu  tau(  98) = (  0.7438140  0.8240090  0.5722210  )
        99           Cu  tau(  99) = (  0.8036460  0.9168100  0.7614030  )
       100           Zr  tau( 100) = (  0.8574510  0.7776480  0.9154230  )

     number of k points=     8  Fermi-Dirac smearing, width (Ry)=  0.0080
                       cart. coord. in units 2pi/alat
        k(    1) = (   0.2500000   0.2550000   0.2550000), wk =   0.2500000
        k(    2) = (   0.2500000   0.2550000  -0.2550000), wk =   0.2500000
        k(    3) = (   0.2500000  -0.2550000   0.2550000), wk =   0.2500000
        k(    4) = (   0.2500000  -0.2550000  -0.2550000), wk =   0.2500000
        k(    5) = (  -0.2500000   0.2550000   0.2550000), wk =   0.2500000
        k(    6) = (  -0.2500000   0.2550000  -0.2550000), wk =   0.2500000
        k(    7) = (  -0.2500000  -0.2550000   0.2550000), wk =   0.2500000
        k(    8) = (  -0.2500000  -0.2550000  -0.2550000), wk =   0.2500000

                       cryst. coord.
        k(    1) = (   0.2500000   0.2500000   0.2500000), wk =   0.2500000
        k(    2) = (   0.2500000   0.2500000  -0.2500000), wk =   0.2500000
        k(    3) = (   0.2500000  -0.2500000   0.2500000), wk =   0.2500000
        k(    4) = (   0.2500000  -0.2500000  -0.2500000), wk =   0.2500000
        k(    5) = (  -0.2500000   0.2500000   0.2500000), wk =   0.2500000
        k(    6) = (  -0.2500000   0.2500000  -0.2500000), wk =   0.2500000
        k(    7) = (  -0.2500000  -0.2500000   0.2500000), wk =   0.2500000
        k(    8) = (  -0.2500000  -0.2500000  -0.2500000), wk =   0.2500000

     Dense  grid:  2681107 G-vectors     FFT dimensions: ( 180, 180, 180)

     Smooth grid:   947955 G-vectors     FFT dimensions: ( 125, 125, 125)

     Dynamical RAM for                 wfc:      81.79 MB

     Dynamical RAM for     wfc (w. buffer):      81.79 MB

     Dynamical RAM for           str. fact:       5.11 MB

     Dynamical RAM for           local pot:       0.00 MB

     Dynamical RAM for          nlocal pot:     134.06 MB

     Dynamical RAM for                qrad:      20.99 MB

     Dynamical RAM for          rho,v,vnew:      11.05 MB

     Dynamical RAM for               rhoin:       3.68 MB

     Dynamical RAM for            rho*nmix:      27.27 MB

     Dynamical RAM for           G-vectors:       6.69 MB

     Dynamical RAM for          h,s,v(r/c):      95.98 MB

     Dynamical RAM for          <psi|beta>:      29.50 MB

     Dynamical RAM for                 psi:     327.18 MB

     Dynamical RAM for                hpsi:     327.18 MB

     Dynamical RAM for                spsi:     327.18 MB

     Dynamical RAM for      wfcinit/wfcrot:     200.46 MB

     Dynamical RAM for           addusdens:     400.58 MB

     Dynamical RAM for          addusforce:     826.27 MB

     Estimated static dynamical RAM per process >     307.37 MB

     Estimated max dynamical RAM per process >       1.38 GB

     Estimated total dynamical RAM >     265.20 GB

     Initial potential from superposition of free atoms

     starting charge 1524.87645, renormalised to 1525.00000
     Starting wfc are 1135 randomized atomic wfcs
     Checking if some PAW data can be deallocated... 
       PAW data deallocated on  188 nodes for type:  1
       PAW data deallocated on   99 nodes for type:  2
       PAW data deallocated on   97 nodes for type:  3

     total cpu time spent up to now is       45.0 secs

     Self-consistent Calculation

     iteration #  1     ecut=    70.00 Ry     beta= 0.40
     Davidson diagonalization with overlap
     ethr =  1.00E-02,  avg # of iterations =  4.0

     total cpu time spent up to now is      263.0 secs

     total energy              =  -38838.30820197 Ry
     Harris-Foulkes estimate   =  -39002.71906825 Ry
     estimated scf accuracy    <     267.40074242 Ry

     iteration #  2     ecut=    70.00 Ry     beta= 0.40
     Davidson diagonalization with overlap
     ethr =  1.00E-02,  avg # of iterations =  3.0

     total cpu time spent up to now is      499.7 secs

     total energy              =  -38883.37690498 Ry
     Harris-Foulkes estimate   =  -39182.05923984 Ry
     estimated scf accuracy    <    1464.65653535 Ry

     iteration #  3     ecut=    70.00 Ry     beta= 0.40
     Davidson diagonalization with overlap
     ethr =  1.00E-02,  avg # of iterations =  3.0

     total cpu time spent up to now is      674.8 secs

     total energy              =  -38946.65864572 Ry
     Harris-Foulkes estimate   =  -39069.95890702 Ry
     estimated scf accuracy    <    1010.46457407 Ry

     iteration #  4     ecut=    70.00 Ry     beta= 0.40
     Davidson diagonalization with overlap
     ethr =  1.00E-02,  avg # of iterations =  3.0

     total cpu time spent up to now is      817.1 secs

     total energy              =  -38991.11423666 Ry
     Harris-Foulkes estimate   =  -39017.79341125 Ry
     estimated scf accuracy    <     186.88362401 Ry

     iteration #  5     ecut=    70.00 Ry     beta= 0.40
     Davidson diagonalization with overlap
     ethr =  1.00E-02,  avg # of iterations =  2.0

     total cpu time spent up to now is      931.4 secs

     total energy              =  -38994.55619944 Ry
     Harris-Foulkes estimate   =  -39003.89202459 Ry
     estimated scf accuracy    <     130.09339136 Ry

     iteration #  6     ecut=    70.00 Ry     beta= 0.40
     Davidson diagonalization with overlap
     ethr =  8.53E-03,  avg # of iterations =  1.0

     total cpu time spent up to now is     1034.5 secs

     total energy              =  -38993.92585299 Ry
     Harris-Foulkes estimate   =  -38999.38649172 Ry
     estimated scf accuracy    <      72.91330238 Ry

     iteration #  7     ecut=    70.00 Ry     beta= 0.40
     Davidson diagonalization with overlap
     ethr =  4.78E-03,  avg # of iterations =  1.0

     total cpu time spent up to now is     1137.2 secs

     total energy              =  -38992.72963242 Ry
     Harris-Foulkes estimate   =  -38995.61824750 Ry
     estimated scf accuracy    <      40.49190297 Ry

     iteration #  8     ecut=    70.00 Ry     beta= 0.40
     Davidson diagonalization with overlap
     ethr =  2.66E-03,  avg # of iterations =  1.0

     total cpu time spent up to now is     1240.3 secs

     total energy              =  -38990.40629406 Ry
     Harris-Foulkes estimate   =  -38993.72377945 Ry
     estimated scf accuracy    <      37.94872867 Ry

     iteration #  9     ecut=    70.00 Ry     beta= 0.40
     Davidson diagonalization with overlap
     ethr =  2.49E-03,  avg # of iterations =  1.0

     total cpu time spent up to now is     1343.0 secs

     total energy              =  -38989.80670902 Ry
     Harris-Foulkes estimate   =  -38991.52601604 Ry
     estimated scf accuracy    <      15.32987434 Ry

     iteration # 10     ecut=    70.00 Ry     beta= 0.40
     Davidson diagonalization with overlap
     ethr =  1.01E-03,  avg # of iterations =  1.0

     total cpu time spent up to now is     1445.7 secs

     total energy              =  -38988.12274597 Ry
     Harris-Foulkes estimate   =  -38990.43508705 Ry
     estimated scf accuracy    <       6.89535072 Ry

     iteration # 11     ecut=    70.00 Ry     beta= 0.40
     Davidson diagonalization with overlap
     ethr =  4.52E-04,  avg # of iterations =  4.0

     total cpu time spent up to now is     1615.8 secs

     total energy              =  -38987.27431469 Ry
     Harris-Foulkes estimate   =  -38991.79116184 Ry
     estimated scf accuracy    <      60.51714801 Ry

     iteration # 12     ecut=    70.00 Ry     beta= 0.40
     Davidson diagonalization with overlap
     ethr =  4.52E-04,  avg # of iterations =  3.2

     total cpu time spent up to now is     1752.0 secs

     total energy              =  -38989.13630696 Ry
     Harris-Foulkes estimate   =  -38990.32021000 Ry
     estimated scf accuracy    <       9.85429214 Ry

     iteration # 13     ecut=    70.00 Ry     beta= 0.40
     Davidson diagonalization with overlap
     ethr =  4.52E-04,  avg # of iterations =  2.0

     total cpu time spent up to now is     1866.4 secs

     total energy              =  -38989.50636039 Ry
     Harris-Foulkes estimate   =  -38990.10388440 Ry
     estimated scf accuracy    <       8.02825747 Ry

     iteration # 14     ecut=    70.00 Ry     beta= 0.40
     Davidson diagonalization with overlap
     ethr =  4.52E-04,  avg # of iterations =  1.0

     total cpu time spent up to now is     1969.0 secs

     total energy              =  -38989.73874638 Ry
     Harris-Foulkes estimate   =  -38989.84295422 Ry
     estimated scf accuracy    <       1.12386368 Ry

     iteration # 15     ecut=    70.00 Ry     beta= 0.40
     Davidson diagonalization with overlap
     ethr =  7.37E-05,  avg # of iterations =  2.4

     total cpu time spent up to now is     2100.7 secs

     total energy              =  -38989.76120043 Ry
     Harris-Foulkes estimate   =  -38989.83151971 Ry
     estimated scf accuracy    <       1.09483207 Ry

     iteration # 16     ecut=    70.00 Ry     beta= 0.40
     Davidson diagonalization with overlap
     ethr =  7.18E-05,  avg # of iterations =  1.5

     total cpu time spent up to now is     2221.5 secs

     total energy              =  -38989.75419389 Ry
     Harris-Foulkes estimate   =  -38989.83904940 Ry
     estimated scf accuracy    <       1.40618320 Ry

     iteration # 17     ecut=    70.00 Ry     beta= 0.40
     Davidson diagonalization with overlap
     ethr =  7.18E-05,  avg # of iterations =  1.2

     total cpu time spent up to now is     2332.3 secs

     total energy              =  -38989.76208275 Ry
     Harris-Foulkes estimate   =  -38989.84452605 Ry
     estimated scf accuracy    <       1.64296570 Ry

     iteration # 18     ecut=    70.00 Ry     beta= 0.40
     Davidson diagonalization with overlap
     ethr =  7.18E-05,  avg # of iterations =  1.0

     total cpu time spent up to now is     2435.5 secs

     total energy              =  -38989.78937689 Ry
     Harris-Foulkes estimate   =  -38989.81186215 Ry
     estimated scf accuracy    <       0.30242437 Ry

     iteration # 19     ecut=    70.00 Ry     beta= 0.40
     Davidson diagonalization with overlap
     ethr =  1.98E-05,  avg # of iterations =  1.2

     total cpu time spent up to now is     2546.3 secs

     total energy              =  -38989.78701054 Ry
     Harris-Foulkes estimate   =  -38989.80902837 Ry
     estimated scf accuracy    <       0.22180131 Ry

     iteration # 20     ecut=    70.00 Ry     beta= 0.40
     Davidson diagonalization with overlap
     ethr =  1.45E-05,  avg # of iterations =  7.4

     total cpu time spent up to now is     2751.6 secs

     total energy              =  -38989.76779763 Ry
     Harris-Foulkes estimate   =  -38989.80844060 Ry
     estimated scf accuracy    <       0.28195667 Ry

     iteration # 21     ecut=    70.00 Ry     beta= 0.40
     Davidson diagonalization with overlap
     ethr =  1.45E-05,  avg # of iterations =  3.8

     total cpu time spent up to now is     2901.8 secs

     total energy              =  -38989.74815647 Ry
     Harris-Foulkes estimate   =  -38989.84020502 Ry
     estimated scf accuracy    <       0.99313981 Ry

     iteration # 22     ecut=    70.00 Ry     beta= 0.40
     Davidson diagonalization with overlap
     ethr =  1.45E-05,  avg # of iterations =  2.8

     total cpu time spent up to now is     3027.8 secs

     total energy              =  -38989.79102134 Ry
     Harris-Foulkes estimate   =  -38989.80259837 Ry
     estimated scf accuracy    <       0.10494657 Ry

     iteration # 23     ecut=    70.00 Ry     beta= 0.40
     Davidson diagonalization with overlap
     ethr =  6.88E-06,  avg # of iterations =  1.5

     total cpu time spent up to now is     3140.9 secs

     total energy              =  -38989.79529889 Ry
     Harris-Foulkes estimate   =  -38989.79854516 Ry
     estimated scf accuracy    <       0.03936481 Ry

     iteration # 24     ecut=    70.00 Ry     beta= 0.40
     Davidson diagonalization with overlap
     ethr =  2.58E-06,  avg # of iterations =  3.6

     total cpu time spent up to now is     3329.0 secs

     total energy              =  -38989.79550469 Ry
     Harris-Foulkes estimate   =  -38989.79842870 Ry
     estimated scf accuracy    <       0.03216680 Ry

     iteration # 25     ecut=    70.00 Ry     beta= 0.40
     Davidson diagonalization with overlap
     ethr =  2.11E-06,  avg # of iterations =  4.2

     total cpu time spent up to now is     3472.8 secs

     total energy              =  -38989.79336419 Ry
     Harris-Foulkes estimate   =  -38989.80066332 Ry
     estimated scf accuracy    <       0.12778746 Ry

     iteration # 26     ecut=    70.00 Ry     beta= 0.40
     Davidson diagonalization with overlap
     ethr =  2.11E-06,  avg # of iterations =  3.2

     total cpu time spent up to now is     3606.2 secs

     total energy              =  -38989.79519373 Ry
     Harris-Foulkes estimate   =  -38989.79906382 Ry
     estimated scf accuracy    <       0.06103992 Ry

     iteration # 27     ecut=    70.00 Ry     beta= 0.40
     Davidson diagonalization with overlap
     ethr =  2.11E-06,  avg # of iterations =  1.0

     total cpu time spent up to now is     3708.8 secs

     total energy              =  -38989.79683596 Ry
     Harris-Foulkes estimate   =  -38989.79757580 Ry
     estimated scf accuracy    <       0.00842396 Ry

     iteration # 28     ecut=    70.00 Ry     beta= 0.40
     Davidson diagonalization with overlap
     ethr =  5.52E-07,  avg # of iterations =  1.0

     total cpu time spent up to now is     3811.3 secs

     total energy              =  -38989.79685690 Ry
     Harris-Foulkes estimate   =  -38989.79758374 Ry
     estimated scf accuracy    <       0.01014045 Ry

     iteration # 29     ecut=    70.00 Ry     beta= 0.40
     Davidson diagonalization with overlap
     ethr =  5.52E-07,  avg # of iterations =  1.0

     total cpu time spent up to now is     3913.8 secs

     total energy              =  -38989.79699127 Ry
     Harris-Foulkes estimate   =  -38989.79751078 Ry
     estimated scf accuracy    <       0.00707196 Ry

     iteration # 30     ecut=    70.00 Ry     beta= 0.40
     Davidson diagonalization with overlap
     ethr =  4.64E-07,  avg # of iterations =  1.0

     total cpu time spent up to now is     4016.4 secs

     total energy              =  -38989.79708406 Ry
     Harris-Foulkes estimate   =  -38989.79744296 Ry
     estimated scf accuracy    <       0.00496364 Ry

     iteration # 31     ecut=    70.00 Ry     beta= 0.40
     Davidson diagonalization with overlap
     ethr =  3.25E-07,  avg # of iterations =  1.0

     total cpu time spent up to now is     4118.8 secs

     total energy              =  -38989.79715078 Ry
     Harris-Foulkes estimate   =  -38989.79741515 Ry
     estimated scf accuracy    <       0.00317940 Ry

     iteration # 32     ecut=    70.00 Ry     beta= 0.40
     Davidson diagonalization with overlap
     ethr =  2.08E-07,  avg # of iterations =  1.0

     total cpu time spent up to now is     4221.1 secs

     total energy              =  -38989.79721128 Ry
     Harris-Foulkes estimate   =  -38989.79734878 Ry
     estimated scf accuracy    <       0.00109099 Ry

     iteration # 33     ecut=    70.00 Ry     beta= 0.40
     Davidson diagonalization with overlap
     ethr =  7.15E-08,  avg # of iterations =  1.0

     total cpu time spent up to now is     4323.6 secs

     total energy              =  -38989.79721252 Ry
     Harris-Foulkes estimate   =  -38989.79736778 Ry
     estimated scf accuracy    <       0.00214410 Ry

     iteration # 34     ecut=    70.00 Ry     beta= 0.40
     Davidson diagonalization with overlap
     ethr =  7.15E-08,  avg # of iterations =  1.0

     total cpu time spent up to now is     4426.0 secs

     total energy              =  -38989.79723801 Ry
     Harris-Foulkes estimate   =  -38989.79735476 Ry
     estimated scf accuracy    <       0.00172406 Ry

     iteration # 35     ecut=    70.00 Ry     beta= 0.40
     Davidson diagonalization with overlap
     ethr =  7.15E-08,  avg # of iterations =  1.0

     total cpu time spent up to now is     4528.3 secs

     total energy              =  -38989.79724453 Ry
     Harris-Foulkes estimate   =  -38989.79735053 Ry
     estimated scf accuracy    <       0.00152585 Ry

     iteration # 36     ecut=    70.00 Ry     beta= 0.40
     Davidson diagonalization with overlap
     ethr =  7.15E-08,  avg # of iterations =  1.0

     total cpu time spent up to now is     4630.7 secs

     total energy              =  -38989.79724615 Ry
     Harris-Foulkes estimate   =  -38989.79735029 Ry
     estimated scf accuracy    <       0.00161592 Ry

     iteration # 37     ecut=    70.00 Ry     beta= 0.40
     Davidson diagonalization with overlap
     ethr =  7.15E-08,  avg # of iterations =  1.0

     total cpu time spent up to now is     4733.0 secs

     total energy              =  -38989.79727392 Ry
     Harris-Foulkes estimate   =  -38989.79733062 Ry
     estimated scf accuracy    <       0.00088819 Ry

     iteration # 38     ecut=    70.00 Ry     beta= 0.40
     Davidson diagonalization with overlap
     ethr =  5.82E-08,  avg # of iterations =  1.0

     total cpu time spent up to now is     4835.7 secs

     total energy              =  -38989.79729015 Ry
     Harris-Foulkes estimate   =  -38989.79731595 Ry
     estimated scf accuracy    <       0.00034958 Ry

     iteration # 39     ecut=    70.00 Ry     beta= 0.40
     Davidson diagonalization with overlap
     ethr =  2.29E-08,  avg # of iterations =  1.0

     total cpu time spent up to now is     4938.0 secs

     total energy              =  -38989.79729498 Ry
     Harris-Foulkes estimate   =  -38989.79731512 Ry
     estimated scf accuracy    <       0.00029508 Ry

     iteration # 40     ecut=    70.00 Ry     beta= 0.40
     Davidson diagonalization with overlap
     ethr =  1.93E-08,  avg # of iterations =  1.0

     total cpu time spent up to now is     5040.4 secs

     total energy              =  -38989.79729912 Ry
     Harris-Foulkes estimate   =  -38989.79731327 Ry
     estimated scf accuracy    <       0.00021944 Ry

     iteration # 41     ecut=    70.00 Ry     beta= 0.40
     Davidson diagonalization with overlap
     ethr =  1.44E-08,  avg # of iterations =  1.0

     total cpu time spent up to now is     5142.4 secs

     total energy              =  -38989.79730250 Ry
     Harris-Foulkes estimate   =  -38989.79731113 Ry
     estimated scf accuracy    <       0.00011249 Ry

     iteration # 42     ecut=    70.00 Ry     beta= 0.40
     Davidson diagonalization with overlap
     ethr =  7.38E-09,  avg # of iterations =  1.0

     total cpu time spent up to now is     5244.3 secs

     total energy              =  -38989.79730319 Ry
     Harris-Foulkes estimate   =  -38989.79731040 Ry
     estimated scf accuracy    <       0.00009092 Ry

     iteration # 43     ecut=    70.00 Ry     beta= 0.40
     Davidson diagonalization with overlap
     ethr =  5.96E-09,  avg # of iterations =  1.0

     total cpu time spent up to now is     5346.1 secs

     total energy              =  -38989.79730362 Ry
     Harris-Foulkes estimate   =  -38989.79731138 Ry
     estimated scf accuracy    <       0.00011965 Ry

     iteration # 44     ecut=    70.00 Ry     beta= 0.40
     Davidson diagonalization with overlap
     ethr =  5.96E-09,  avg # of iterations =  1.0

     total cpu time spent up to now is     5448.3 secs

     total energy              =  -38989.79730530 Ry
     Harris-Foulkes estimate   =  -38989.79731022 Ry
     estimated scf accuracy    <       0.00007531 Ry

     iteration # 45     ecut=    70.00 Ry     beta= 0.40
     Davidson diagonalization with overlap
     ethr =  4.94E-09,  avg # of iterations =  1.0

     total cpu time spent up to now is     5550.2 secs

     total energy              =  -38989.79730643 Ry
     Harris-Foulkes estimate   =  -38989.79730967 Ry
     estimated scf accuracy    <       0.00004236 Ry

     iteration # 46     ecut=    70.00 Ry     beta= 0.40
     Davidson diagonalization with overlap
     ethr =  2.78E-09,  avg # of iterations =  1.0

     total cpu time spent up to now is     5651.9 secs

     total energy              =  -38989.79730555 Ry
     Harris-Foulkes estimate   =  -38989.79731053 Ry
     estimated scf accuracy    <       0.00008245 Ry

     iteration # 47     ecut=    70.00 Ry     beta= 0.40
     Davidson diagonalization with overlap
     ethr =  2.78E-09,  avg # of iterations =  1.0

     total cpu time spent up to now is     5753.6 secs

     total energy              =  -38989.79730596 Ry
     Harris-Foulkes estimate   =  -38989.79731041 Ry
     estimated scf accuracy    <       0.00007410 Ry

     iteration # 48     ecut=    70.00 Ry     beta= 0.40
     Davidson diagonalization with overlap
     ethr =  2.78E-09,  avg # of iterations =  1.0

     total cpu time spent up to now is     5855.5 secs

     total energy              =  -38989.79730766 Ry
     Harris-Foulkes estimate   =  -38989.79730896 Ry
     estimated scf accuracy    <       0.00001750 Ry

     iteration # 49     ecut=    70.00 Ry     beta= 0.40
     Davidson diagonalization with overlap
     ethr =  1.15E-09,  avg # of iterations =  1.0

     total cpu time spent up to now is     5957.0 secs

     total energy              =  -38989.79730772 Ry
     Harris-Foulkes estimate   =  -38989.79730911 Ry
     estimated scf accuracy    <       0.00002334 Ry

     iteration # 50     ecut=    70.00 Ry     beta= 0.40
     Davidson diagonalization with overlap
     ethr =  1.15E-09,  avg # of iterations =  1.0

     total cpu time spent up to now is     6058.6 secs

     total energy              =  -38989.79730808 Ry
     Harris-Foulkes estimate   =  -38989.79730891 Ry
     estimated scf accuracy    <       0.00001244 Ry

     iteration # 51     ecut=    70.00 Ry     beta= 0.40
     Davidson diagonalization with overlap
     ethr =  8.16E-10,  avg # of iterations =  1.0

     total cpu time spent up to now is     6160.0 secs

     total energy              =  -38989.79730832 Ry
     Harris-Foulkes estimate   =  -38989.79730877 Ry
     estimated scf accuracy    <       0.00000625 Ry

     iteration # 52     ecut=    70.00 Ry     beta= 0.40
     Davidson diagonalization with overlap
     ethr =  4.10E-10,  avg # of iterations =  1.0

     total cpu time spent up to now is     6261.4 secs

     total energy              =  -38989.79730837 Ry
     Harris-Foulkes estimate   =  -38989.79730877 Ry
     estimated scf accuracy    <       0.00000547 Ry

     iteration # 53     ecut=    70.00 Ry     beta= 0.40
     Davidson diagonalization with overlap
     ethr =  3.59E-10,  avg # of iterations =  1.0

     total cpu time spent up to now is     6362.7 secs

     total energy              =  -38989.79730840 Ry
     Harris-Foulkes estimate   =  -38989.79730883 Ry
     estimated scf accuracy    <       0.00000705 Ry

     iteration # 54     ecut=    70.00 Ry     beta= 0.40
     Davidson diagonalization with overlap
     ethr =  3.59E-10,  avg # of iterations =  1.0

     total cpu time spent up to now is     6463.9 secs

     total energy              =  -38989.79730853 Ry
     Harris-Foulkes estimate   =  -38989.79730875 Ry
     estimated scf accuracy    <       0.00000321 Ry

     iteration # 55     ecut=    70.00 Ry     beta= 0.40
     Davidson diagonalization with overlap
     ethr =  2.11E-10,  avg # of iterations =  1.0

     total cpu time spent up to now is     6565.3 secs

     total energy              =  -38989.79730858 Ry
     Harris-Foulkes estimate   =  -38989.79730875 Ry
     estimated scf accuracy    <       0.00000248 Ry

     iteration # 56     ecut=    70.00 Ry     beta= 0.40
     Davidson diagonalization with overlap
     ethr =  1.63E-10,  avg # of iterations =  1.0

     total cpu time spent up to now is     6666.9 secs

     total energy              =  -38989.79730857 Ry
     Harris-Foulkes estimate   =  -38989.79730877 Ry
     estimated scf accuracy    <       0.00000313 Ry

     iteration # 57     ecut=    70.00 Ry     beta= 0.40
     Davidson diagonalization with overlap
     ethr =  1.63E-10,  avg # of iterations =  1.0

     total cpu time spent up to now is     6768.2 secs

     total energy              =  -38989.79730853 Ry
     Harris-Foulkes estimate   =  -38989.79730881 Ry
     estimated scf accuracy    <       0.00000431 Ry

     iteration # 58     ecut=    70.00 Ry     beta= 0.40
     Davidson diagonalization with overlap
     ethr =  1.63E-10,  avg # of iterations =  1.0

     total cpu time spent up to now is     6869.4 secs

     total energy              =  -38989.79730862 Ry
     Harris-Foulkes estimate   =  -38989.79730875 Ry
     estimated scf accuracy    <       0.00000212 Ry

     iteration # 59     ecut=    70.00 Ry     beta= 0.40
     Davidson diagonalization with overlap
     ethr =  1.39E-10,  avg # of iterations =  1.0

     total cpu time spent up to now is     6970.7 secs

     total energy              =  -38989.79730865 Ry
     Harris-Foulkes estimate   =  -38989.79730874 Ry
     estimated scf accuracy    <       0.00000161 Ry

     iteration # 60     ecut=    70.00 Ry     beta= 0.40
     Davidson diagonalization with overlap
     ethr =  1.06E-10,  avg # of iterations =  1.0

     total cpu time spent up to now is     7072.3 secs

     End of self-consistent calculation

          k = 0.2500 0.2550 0.2550 (118458 PWs)   bands (ev):

   -98.9014 -98.8709 -98.8058 -98.7644 -98.7585 -98.7566 -98.7475 -98.7438
   -98.7299 -98.7106 -98.7031 -98.7015 -98.6922 -98.6781 -98.6748 -98.6733
   -98.6695 -98.6623 -98.6615 -98.6548 -98.6432 -98.6332 -98.6325 -98.6235
   -98.5972 -98.5953 -98.5859 -98.5853 -98.5799 -98.5757 -98.5567 -98.5485
   -98.5279 -98.5130 -98.5055 -98.4936 -98.4672 -98.4665 -98.4554 -98.4438
   -98.4329 -98.4256 -98.4240 -98.4113 -98.4084 -98.3967 -98.3883 -98.3549
   -98.3288 -56.2792 -56.2730 -56.2504 -56.2248 -56.2179 -56.2075 -56.1687
   -56.1605 -56.1558 -56.1452 -56.1361 -56.1338 -56.1250 -56.1203 -56.1171
   -56.1110 -56.1032 -56.0997 -56.0980 -56.0950 -56.0946 -56.0847 -56.0797
   -56.0790 -56.0758 -56.0717 -56.0680 -56.0677 -56.0650 -56.0636 -56.0628
   -56.0599 -56.0526 -56.0518 -56.0494 -56.0483 -56.0435 -56.0422 -56.0394
   -56.0337 -56.0299 -56.0181 -56.0180 -56.0171 -56.0170 -56.0144 -56.0112
   -56.0089 -56.0007 -56.0006 -55.9982 -55.9979 -55.9973 -55.9926 -55.9829
   -55.9820 -55.9809 -55.9793 -55.9756 -55.9713 -55.9712 -55.9711 -55.9695
   -55.9665 -55.9652 -55.9622 -55.9545 -55.9540 -55.9520 -55.9499 -55.9442
   -55.9429 -55.9424 -55.9399 -55.9399 -55.9359 -55.9339 -55.9332 -55.9331
   -55.9326 -55.9293 -55.9276 -55.9222 -55.9211 -55.9174 -55.9137 -55.9000
   -55.8967 -55.8960 -55.8930 -55.8810 -55.8785 -55.8768 -55.8736 -55.8734
   -55.8690 -55.8653 -55.8653 -55.8629 -55.8609 -55.8530 -55.8446 -55.8377
   -55.8359 -55.8352 -55.8337 -55.8248 -55.8248 -55.8232 -55.8209 -55.8148
   -55.8146 -55.8141 -55.8065 -55.8062 -55.7989 -55.7965 -55.7953 -55.7921
   -55.7815 -55.7808 -55.7800 -55.7765 -55.7694 -55.7666 -55.7638 -55.7572
   -55.7518 -55.7507 -55.7436 -55.7427 -55.7410 -55.7390 -55.7330 -55.7327
   -55.7301 -55.7155 -55.7101 -55.7086 -55.7076 -55.6955 -55.6920 -55.6888
   -55.6754 -55.6702 -55.6633 -55.6435 -34.7782 -34.6106 -34.5787 -34.5692
   -34.5465 -34.4934 -34.4842 -34.4792 -34.4691 -34.4655 -34.4626 -34.4610
   -34.4544 -34.4402 -34.4314 -34.4143 -34.3982 -34.3935 -34.3925 -34.3765
   -34.3720 -34.3697 -34.3613 -34.3522 -34.3489 -34.3336 -34.3262 -34.3213
   -34.3203 -34.3078 -34.3055 -34.3015 -34.2981 -34.2877 -34.2710 -34.2624
   -34.2388 -34.2351 -34.2244 -34.2151 -34.2094 -34.1874 -34.1707 -34.1552
   -34.1183 -34.0862 -34.0522 -33.9771 -33.8791 -12.8428 -12.8315 -12.8124
   -12.7988 -12.7891 -12.7864 -12.7772 -12.7691 -12.7647 -12.7577 -12.7471
   -12.7433 -12.7345 -12.7294 -12.7221 -12.7200 -12.7143 -12.7106 -12.7072
   -12.7023 -12.6959 -12.6934 -12.6838 -12.6769 -12.6744 -12.6697 -12.6608
   -12.6523 -12.6476 -12.6429 -12.6388 -12.6374 -12.6324 -12.6242 -12.6225
   -12.6170 -12.6120 -12.6048 -12.5975 -12.5940 -12.5913 -12.5880 -12.5764
   -12.5725 -12.5704 -12.5647 -12.5572 -12.5542 -12.5472 -12.5414 -12.5396
   -12.5334 -12.5304 -12.5262 -12.5197 -12.5122 -12.5052 -12.5017 -12.4989
   -12.4910 -12.4849 -12.4810 -12.4776 -12.4699 -12.4662 -12.4587 -12.4533
   -12.4477 -12.4405 -12.4374 -12.4324 -12.4277 -12.4202 -12.4147 -12.4096
   -12.4030 -12.3974 -12.3925 -12.3872 -12.3841 -12.3756 -12.3698 -12.3654
   -12.3605 -12.3554 -12.3512 -12.3432 -12.3373 -12.3358 -12.3286 -12.3241
   -12.3191 -12.3113 -12.3065 -12.3027 -12.2944 -12.2854 -12.2789 -12.2762
   -12.2730 -12.2713 -12.2667 -12.2611 -12.2558 -12.2529 -12.2447 -12.2424
   -12.2394 -12.2362 -12.2239 -12.2174 -12.2143 -12.2062 -12.2036 -12.1947
   -12.1907 -12.1854 -12.1745 -12.1715 -12.1637 -12.1550 -12.1484 -12.1407
   -12.1307 -12.1266 -12.1191 -12.1145 -12.1046 -12.0956 -12.0657 -12.0552
   -12.0486 -12.0452 -12.0285 -12.0231 -12.0207 -12.0172 -11.9575 -11.9359
   -11.9284 -11.9158 -11.8857 -11.8461 -11.8420 -11.8100 -11.8011 -11.7530
     7.0713   7.4026   7.5867   7.8809   8.0721   8.1973   8.4050   8.5671
     8.6360   8.7112   8.8800   9.0159   9.0617   9.1283   9.1982   9.3506
     9.4206   9.4932   9.5080   9.6483   9.6797   9.7370   9.7861   9.8098
     9.8546   9.9015   9.9227   9.9648  10.0038  10.0405  10.0659  10.0767
    10.1012  10.1220  10.1376  10.1459  10.1624  10.1891  10.1967  10.2155
    10.2208  10.2327  10.2517  10.2610  10.2730  10.2954  10.3022  10.3134
    10.3220  10.3449  10.3563  10.3637  10.3750  10.3852  10.3914  10.4102
    10.4239  10.4300  10.4356  10.4393  10.4482  10.4604  10.4695  10.4771
    10.4908  10.4970  10.5037  10.5141  10.5206  10.5339  10.5376  10.5465
    10.5537  10.5625  10.5695  10.5799  10.5880  10.5899  10.6030  10.6073
    10.6156  10.6221  10.6276  10.6366  10.6440  10.6508  10.6582  10.6623
    10.6720  10.6755  10.6856  10.6917  10.7026  10.7125  10.7213  10.7237
    10.7322  10.7410  10.7469  10.7521  10.7566  10.7643  10.7684  10.7707
    10.7795  10.7837  10.7906  10.8065  10.8114  10.8156  10.8217  10.8254
    10.8328  10.8427  10.8463  10.8506  10.8618  10.8675  10.8755  10.8811
    10.8894  10.8952  10.9026  10.9075  10.9083  10.9138  10.9305  10.9367
    10.9431  10.9481  10.9572  10.9618  10.9639  10.9718  10.9743  10.9828
    10.9865  10.9985  11.0028  11.0104  11.0165  11.0230  11.0271  11.0309
    11.0369  11.0411  11.0460  11.0520  11.0605  11.0679  11.0738  11.0810
    11.0870  11.0930  11.0988  11.1090  11.1136  11.1208  11.1256  11.1294
    11.1378  11.1483  11.1497  11.1553  11.1600  11.1650  11.1700  11.1786
    11.1822  11.1923  11.1975  11.2030  11.2127  11.2186  11.2229  11.2297
    11.2362  11.2393  11.2519  11.2568  11.2620  11.2701  11.2778  11.2842
    11.2895  11.2936  11.3032  11.3122  11.3184  11.3224  11.3339  11.3481
    11.3492  11.3501  11.3663  11.3724  11.3744  11.3800  11.3866  11.3989
    11.4033  11.4153  11.4216  11.4285  11.4393  11.4416  11.4454  11.4548
    11.4674  11.4753  11.4870  11.4941  11.4977  11.5081  11.5162  11.5271
    11.5280  11.5343  11.5410  11.5535  11.5623  11.5739  11.5813  11.5867
    11.5907  11.6010  11.6068  11.6203  11.6257  11.6356  11.6475  11.6525
    11.6576  11.6686  11.6771  11.6854  11.6905  11.7016  11.7082  11.7196
    11.7248  11.7397  11.7512  11.7575  11.7612  11.7700  11.7804  11.7990
    11.8070  11.8152  11.8275  11.8372  11.8401  11.8608  11.8699  11.8768
    11.8835  11.8963  11.9045  11.9115  11.9255  11.9302  11.9419  11.9504
    11.9679  11.9780  11.9863  12.0018  12.0082  12.0349  12.0474  12.0606
    12.0732  12.0937  12.0981  12.1217  12.1348  12.1615  12.1802  12.1931
    12.2170  12.2404  12.2617  12.2855  12.3199  12.3405  12.3791  12.3905
    12.4458  12.4827  12.5043  12.5144  12.5744  12.6008  12.6263  12.6729
    12.6837  12.7097  12.7478  12.7612  12.8218  12.8620  12.8909  12.9212
    12.9512  12.9907  13.0194  13.0515  13.0888  13.1063  13.1342  13.1467
    13.1767  13.2226  13.2365  13.2658  13.2742  13.3386  13.3559  13.3756
    13.3855  13.4282  13.4491  13.4669  13.5103  13.5335  13.5566  13.5695
    13.5981  13.6216  13.6549  13.6677  13.6845  13.7083  13.7169  13.7383
    13.7654  13.7794  13.8034  13.8248  13.8485  13.8627  13.8747  13.8956
    13.9158  13.9313  13.9451  13.9761  13.9899  14.0230  14.0392  14.0492
    14.0699  14.0998  14.1267  14.1342  14.1527  14.1776  14.2040  14.2233
    14.2281  14.2515  14.2710  14.2906  14.3017  14.3320  14.3459  14.3635
    14.3838  14.4132  14.4282  14.4551  14.4648  14.4937  14.5008  14.5129
    14.5415  14.5546  14.5679  14.5831  14.5943  14.6176  14.6333  14.6596
    14.6802  14.6920  14.7126  14.7411  14.7594  14.7684  14.7856  14.8072
    14.8291  14.8536  14.8727  14.8859  14.9196  14.9393  14.9738  14.9862
    15.0046  15.0288  15.0377  15.0531  15.0819  15.1029  15.1296  15.1415
    15.1703  15.1964  15.2228  15.2561  15.2946  15.3235  15.3308  15.3528
    15.3757  15.3882  15.4228  15.4400  15.4582  15.5044  15.5368  15.5659
    15.5851  15.6233  15.6668  15.6909  15.7056  15.7372  15.7563  15.7947
    15.8205  15.8413  15.8764  15.9243  15.9399  15.9749  16.0288  16.0543
    16.0848  16.1013  16.1331  16.1562  16.1957  16.2478  16.2802  16.3245
    16.3408  16.3733  16.3822  16.4161  16.4569  16.4890  16.5065  16.5507
    16.5812  16.5951  16.6339  16.6668  16.6980  16.7249  16.7312  16.7773
    16.8100  16.8319  16.8711  16.9088  16.9164  16.9481  16.9856  17.0080
    17.0473  17.0522  17.0861  17.1119  17.1476  17.1614  17.2065  17.2266
    17.2543  17.2811  17.3158  17.3419  17.3612  17.3857  17.4077  17.4427
    17.4510  17.5036  17.5234  17.5446  17.5633  17.5904  17.6041  17.6234
    17.6507  17.6898  17.7172  17.7490  17.7724  17.8053  17.8182  17.8540
    17.8654  17.8832  17.9190  17.9292  17.9625  17.9730  18.0080  18.0263
    18.0459  18.0579  18.0902  18.1131  18.1599  18.1779  18.2191  18.2404
    18.2572  18.2720  18.2879  18.3075  18.3398  18.3669  18.4076  18.4198
    18.4380  18.4754  18.5174  18.5352  18.5914  18.6045  18.6324  18.6594
    18.6947  18.7340  18.7550  18.8063  18.8236  18.8654  18.8992  18.9102
    18.9605  19.0013  19.0250  19.0634  19.1301  19.1764  19.2091  19.2294
    19.2751  19.3113  19.3569  19.3973  19.4118  19.4543  19.5171  19.6001
    19.6703  19.6929  19.7031  19.7842  19.8120  19.9180  19.9383  20.0116
    20.0775  20.1235  20.1456  20.2113  20.2823  20.3005  20.3786  20.4036
    20.4566  20.5077  20.5801  20.6137  20.6520  20.7320  20.7705  20.8088
    20.8416  20.8608  20.9202  20.9915  21.0142  21.0926  21.1253  21.1538
    21.1875  21.2285  21.2747  21.3373  21.3771  21.3952  21.4807  21.5128
    21.5472  21.5745  21.6130  21.6427  21.6822  21.7653  21.8104  21.8305
    21.8726  21.9226  21.9698  21.9927  22.0207  22.0757  22.1069  22.1532
    22.1839  22.2364  22.2728  22.3313  22.3794  22.4145  22.4352  22.4709
    22.5014  22.5252  22.5936  22.6223  22.6651  22.6929  22.7396  22.7856
    22.8231  22.8417  22.8758  22.9328  22.9688  23.0005  23.0517  23.0986
    23.1257  23.1571  23.1988  23.2265  23.2779  23.2957  23.3089  23.3924
    23.3969  23.4317  23.4839  23.5416  23.5856  23.6248  23.6508  23.6882
    23.7188  23.7713  23.7950  23.8269  23.8631  23.8862  23.9164  23.9388
    23.9951  24.0310  24.0870  24.1108  24.1330  24.2148  24.2255  24.2495
    24.2895  24.3081  24.3474  24.3977  24.4115  24.4775  24.4914  24.5197
    24.5857  24.6726  24.6986  24.7114  24.7555  24.8007  24.8226  24.8811
    24.9053  24.9280  24.9735  24.9948  25.0356  25.0536

     occupation numbers 
     1.0000   1.0000   1.0000   1.0000   1.0000   1.0000   1.0000   1.0000
     1.0000   1.0000   1.0000   1.0000   1.0000   1.0000   1.0000   1.0000
     1.0000   1.0000   1.0000   1.0000   1.0000   1.0000   1.0000   1.0000
     1.0000   1.0000   1.0000   1.0000   1.0000   1.0000   1.0000   1.0000
     1.0000   1.0000   1.0000   1.0000   1.0000   1.0000   1.0000   1.0000
     1.0000   1.0000   1.0000   1.0000   1.0000   1.0000   1.0000   1.0000
     1.0000   1.0000   1.0000   1.0000   1.0000   1.0000   1.0000   1.0000
     1.0000   1.0000   1.0000   1.0000   1.0000   1.0000   1.0000   1.0000
     1.0000   1.0000   1.0000   1.0000   1.0000   1.0000   1.0000   1.0000
     1.0000   1.0000   1.0000   1.0000   1.0000   1.0000   1.0000   1.0000
     1.0000   1.0000   1.0000   1.0000   1.0000   1.0000   1.0000   1.0000
     1.0000   1.0000   1.0000   1.0000   1.0000   1.0000   1.0000   1.0000
     1.0000   1.0000   1.0000   1.0000   1.0000   1.0000   1.0000   1.0000
     1.0000   1.0000   1.0000   1.0000   1.0000   1.0000   1.0000   1.0000
     1.0000   1.0000   1.0000   1.0000   1.0000   1.0000   1.0000   1.0000
     1.0000   1.0000   1.0000   1.0000   1.0000   1.0000   1.0000   1.0000
     1.0000   1.0000   1.0000   1.0000   1.0000   1.0000   1.0000   1.0000
     1.0000   1.0000   1.0000   1.0000   1.0000   1.0000   1.0000   1.0000
     1.0000   1.0000   1.0000   1.0000   1.0000   1.0000   1.0000   1.0000
     1.0000   1.0000   1.0000   1.0000   1.0000   1.0000   1.0000   1.0000
     1.0000   1.0000   1.0000   1.0000   1.0000   1.0000   1.0000   1.0000
     1.0000   1.0000   1.0000   1.0000   1.0000   1.0000   1.0000   1.0000
     1.0000   1.0000   1.0000   1.0000   1.0000   1.0000   1.0000   1.0000
     1.0000   1.0000   1.0000   1.0000   1.0000   1.0000   1.0000   1.0000
     1.0000   1.0000   1.0000   1.0000   1.0000   1.0000   1.0000   1.0000
     1.0000   1.0000   1.0000   1.0000   1.0000   1.0000   1.0000   1.0000
     1.0000   1.0000   1.0000   1.0000   1.0000   1.0000   1.0000   1.0000
     1.0000   1.0000   1.0000   1.0000   1.0000   1.0000   1.0000   1.0000
     1.0000   1.0000   1.0000   1.0000   1.0000   1.0000   1.0000   1.0000
     1.0000   1.0000   1.0000   1.0000   1.0000   1.0000   1.0000   1.0000
     1.0000   1.0000   1.0000   1.0000   1.0000   1.0000   1.0000   1.0000
     1.0000   1.0000   1.0000   1.0000   1.0000   1.0000   1.0000   1.0000
     1.0000   1.0000   1.0000   1.0000   1.0000   1.0000   1.0000   1.0000
     1.0000   1.0000   1.0000   1.0000   1.0000   1.0000   1.0000   1.0000
     1.0000   1.0000   1.0000   1.0000   1.0000   1.0000   1.0000   1.0000
     1.0000   1.0000   1.0000   1.0000   1.0000   1.0000   1.0000   1.0000
     1.0000   1.0000   1.0000   1.0000   1.0000   1.0000   1.0000   1.0000
     1.0000   1.0000   1.0000   1.0000   1.0000   1.0000   1.0000   1.0000
     1.0000   1.0000   1.0000   1.0000   1.0000   1.0000   1.0000   1.0000
     1.0000   1.0000   1.0000   1.0000   1.0000   1.0000   1.0000   1.0000
     1.0000   1.0000   1.0000   1.0000   1.0000   1.0000   1.0000   1.0000
     1.0000   1.0000   1.0000   1.0000   1.0000   1.0000   1.0000   1.0000
     1.0000   1.0000   1.0000   1.0000   1.0000   1.0000   1.0000   1.0000
     1.0000   1.0000   1.0000   1.0000   1.0000   1.0000   1.0000   1.0000
     1.0000   1.0000   1.0000   1.0000   1.0000   1.0000   1.0000   1.0000
     1.0000   1.0000   1.0000   1.0000   1.0000   1.0000   1.0000   1.0000
     1.0000   1.0000   1.0000   1.0000   1.0000   1.0000   1.0000   1.0000
     1.0000   1.0000   1.0000   1.0000   1.0000   1.0000   1.0000   1.0000
     1.0000   1.0000   1.0000   1.0000   1.0000   1.0000   1.0000   1.0000
     1.0000   1.0000   1.0000   1.0000   1.0000   1.0000   1.0000   1.0000
     1.0000   1.0000   1.0000   1.0000   1.0000   1.0000   1.0000   1.0000
     1.0000   1.0000   1.0000   1.0000   1.0000   1.0000   1.0000   1.0000
     1.0000   1.0000   1.0000   1.0000   1.0000   1.0000   1.0000   1.0000
     1.0000   1.0000   1.0000   1.0000   1.0000   1.0000   1.0000   1.0000
     1.0000   1.0000   1.0000   1.0000   1.0000   1.0000   1.0000   1.0000
     1.0000   1.0000   1.0000   1.0000   1.0000   1.0000   1.0000   1.0000
     1.0000   1.0000   1.0000   1.0000   1.0000   1.0000   1.0000   1.0000
     1.0000   1.0000   1.0000   1.0000   1.0000   1.0000   1.0000   1.0000
     1.0000   1.0000   1.0000   1.0000   1.0000   1.0000   1.0000   1.0000
     1.0000   1.0000   1.0000   1.0000   1.0000   1.0000   1.0000   1.0000
     1.0000   1.0000   1.0000   1.0000   1.0000   1.0000   1.0000   1.0000
     1.0000   1.0000   1.0000   1.0000   1.0000   1.0000   1.0000   1.0000
     1.0000   1.0000   1.0000   1.0000   1.0000   1.0000   1.0000   1.0000
     1.0000   1.0000   1.0000   1.0000   1.0000   1.0000   1.0000   1.0000
     1.0000   1.0000   1.0000   1.0000   1.0000   1.0000   1.0000   1.0000
     1.0000   1.0000   1.0000   1.0000   1.0000   1.0000   1.0000   1.0000
     1.0000   1.0000   1.0000   1.0000   1.0000   1.0000   1.0000   1.0000
     1.0000   1.0000   1.0000   1.0000   1.0000   1.0000   1.0000   1.0000
     1.0000   1.0000   1.0000   1.0000   1.0000   1.0000   1.0000   1.0000
     1.0000   1.0000   1.0000   1.0000   1.0000   1.0000   1.0000   1.0000
     1.0000   1.0000   1.0000   1.0000   1.0000   1.0000   1.0000   1.0000
     1.0000   1.0000   1.0000   1.0000   1.0000   1.0000   1.0000   1.0000
     1.0000   1.0000   1.0000   1.0000   1.0000   1.0000   1.0000   1.0000
     1.0000   1.0000   1.0000   1.0000   1.0000   1.0000   1.0000   1.0000
     1.0000   1.0000   1.0000   1.0000   1.0000   1.0000   1.0000   1.0000
     1.0000   1.0000   1.0000   1.0000   1.0000   1.0000   1.0000   1.0000
     1.0000   1.0000   1.0000   1.0000   1.0000   1.0000   1.0000   1.0000
     1.0000   1.0000   1.0000   1.0000   1.0000   1.0000   1.0000   1.0000
     1.0000   1.0000   1.0000   1.0000   1.0000   1.0000   1.0000   1.0000
     1.0000   1.0000   1.0000   1.0000   1.0000   1.0000   1.0000   1.0000
     1.0000   1.0000   1.0000   1.0000   1.0000   1.0000   1.0000   1.0000
     1.0000   1.0000   1.0000   1.0000   1.0000   1.0000   1.0000   1.0000
     1.0000   1.0000   1.0000   1.0000   1.0000   1.0000   1.0000   1.0000
     1.0000   1.0000   1.0000   1.0000   1.0000   1.0000   1.0000   1.0000
     1.0000   1.0000   1.0000   1.0000   1.0000   1.0000   1.0000   1.0000
     1.0000   1.0000   1.0000   1.0000   1.0000   1.0000   1.0000   1.0000
     1.0000   1.0000   1.0000   1.0000   1.0000   1.0000   1.0000   1.0000
     1.0000   1.0000   1.0000   1.0000   1.0000   1.0000   1.0000   1.0000
     1.0000   1.0000   1.0000   1.0000   1.0000   1.0000   0.9999   0.9999
     0.9999   0.9999   0.9999   0.9998   0.9998   0.9997   0.9996   0.9996
     0.9995   0.9993   0.9991   0.9990   0.9988   0.9986   0.9984   0.9981
     0.9976   0.9972   0.9965   0.9958   0.9948   0.9940   0.9934   0.9920
     0.9903   0.9889   0.9874   0.9833   0.9811   0.9745   0.9705   0.9678
     0.9613   0.9497   0.9365   0.9323   0.9207   0.9023   0.8788   0.8586
     0.8532   0.8241   0.7966   0.7660   0.7472   0.6910   0.6632   0.6263
     0.5817   0.5149   0.4805   0.4193   0.3977   0.3362   0.3218   0.2980
     0.2462   0.2245   0.2039   0.1821   0.1673   0.1396   0.1232   0.0994
     0.0836   0.0757   0.0635   0.0496   0.0422   0.0390   0.0335   0.0276
     0.0227   0.0182   0.0153   0.0136   0.0100   0.0084   0.0061   0.0055
     0.0046   0.0037   0.0034   0.0030   0.0023   0.0019   0.0015   0.0013
     0.0010   0.0008   0.0006   0.0005   0.0003   0.0002   0.0002   0.0002
     0.0002   0.0001   0.0001   0.0001   0.0001   0.0000   0.0000   0.0000
     0.0000   0.0000   0.0000   0.0000   0.0000   0.0000   0.0000   0.0000
     0.0000   0.0000   0.0000   0.0000   0.0000   0.0000   0.0000   0.0000
     0.0000   0.0000   0.0000   0.0000   0.0000   0.0000   0.0000   0.0000
     0.0000   0.0000   0.0000   0.0000   0.0000   0.0000   0.0000   0.0000
     0.0000   0.0000   0.0000   0.0000   0.0000   0.0000   0.0000   0.0000
     0.0000   0.0000   0.0000   0.0000   0.0000   0.0000   0.0000   0.0000
     0.0000   0.0000   0.0000   0.0000   0.0000   0.0000   0.0000   0.0000
     0.0000   0.0000   0.0000   0.0000   0.0000   0.0000   0.0000   0.0000
     0.0000   0.0000   0.0000   0.0000   0.0000   0.0000   0.0000   0.0000
     0.0000   0.0000   0.0000   0.0000   0.0000   0.0000   0.0000   0.0000
     0.0000   0.0000   0.0000   0.0000   0.0000   0.0000   0.0000   0.0000
     0.0000   0.0000   0.0000   0.0000   0.0000   0.0000   0.0000   0.0000
     0.0000   0.0000   0.0000   0.0000   0.0000   0.0000   0.0000   0.0000
     0.0000   0.0000   0.0000   0.0000   0.0000   0.0000   0.0000   0.0000
     0.0000   0.0000   0.0000   0.0000   0.0000   0.0000   0.0000   0.0000
     0.0000   0.0000   0.0000   0.0000   0.0000   0.0000   0.0000   0.0000
     0.0000   0.0000   0.0000   0.0000   0.0000   0.0000   0.0000   0.0000
     0.0000   0.0000   0.0000   0.0000   0.0000   0.0000   0.0000   0.0000
     0.0000   0.0000   0.0000   0.0000   0.0000   0.0000   0.0000   0.0000
     0.0000   0.0000   0.0000   0.0000   0.0000   0.0000   0.0000   0.0000
     0.0000   0.0000   0.0000   0.0000   0.0000   0.0000   0.0000   0.0000
     0.0000   0.0000   0.0000   0.0000   0.0000   0.0000   0.0000   0.0000
     0.0000   0.0000   0.0000   0.0000   0.0000   0.0000   0.0000   0.0000
     0.0000   0.0000   0.0000   0.0000   0.0000   0.0000   0.0000   0.0000
     0.0000   0.0000   0.0000   0.0000   0.0000   0.0000   0.0000   0.0000
     0.0000   0.0000   0.0000   0.0000   0.0000   0.0000   0.0000   0.0000
     0.0000   0.0000   0.0000   0.0000   0.0000   0.0000   0.0000   0.0000
     0.0000   0.0000   0.0000   0.0000   0.0000   0.0000   0.0000   0.0000
     0.0000   0.0000   0.0000   0.0000   0.0000   0.0000   0.0000   0.0000
     0.0000   0.0000   0.0000   0.0000   0.0000   0.0000   0.0000   0.0000
     0.0000   0.0000   0.0000   0.0000   0.0000   0.0000   0.0000   0.0000
     0.0000   0.0000   0.0000   0.0000   0.0000   0.0000   0.0000   0.0000
     0.0000   0.0000   0.0000   0.0000   0.0000   0.0000   0.0000   0.0000
     0.0000   0.0000   0.0000   0.0000   0.0000   0.0000

          k = 0.2500 0.2550-0.2550 (118458 PWs)   bands (ev):

   -98.9014 -98.8709 -98.8058 -98.7644 -98.7585 -98.7566 -98.7475 -98.7438
   -98.7299 -98.7106 -98.7031 -98.7015 -98.6922 -98.6781 -98.6748 -98.6733
   -98.6695 -98.6623 -98.6615 -98.6548 -98.6432 -98.6332 -98.6325 -98.6235
   -98.5972 -98.5953 -98.5859 -98.5853 -98.5799 -98.5757 -98.5567 -98.5485
   -98.5279 -98.5130 -98.5055 -98.4936 -98.4672 -98.4665 -98.4554 -98.4438
   -98.4329 -98.4256 -98.4240 -98.4113 -98.4084 -98.3967 -98.3883 -98.3549
   -98.3288 -56.2792 -56.2730 -56.2504 -56.2248 -56.2179 -56.2075 -56.1687
   -56.1605 -56.1558 -56.1452 -56.1360 -56.1338 -56.1250 -56.1203 -56.1171
   -56.1110 -56.1032 -56.0997 -56.0980 -56.0950 -56.0946 -56.0847 -56.0797
   -56.0790 -56.0758 -56.0717 -56.0680 -56.0677 -56.0650 -56.0636 -56.0629
   -56.0599 -56.0526 -56.0518 -56.0494 -56.0483 -56.0435 -56.0422 -56.0394
   -56.0337 -56.0299 -56.0181 -56.0180 -56.0171 -56.0170 -56.0144 -56.0112
   -56.0089 -56.0007 -56.0006 -55.9982 -55.9979 -55.9972 -55.9926 -55.9829
   -55.9820 -55.9809 -55.9793 -55.9756 -55.9713 -55.9712 -55.9711 -55.9695
   -55.9665 -55.9652 -55.9622 -55.9545 -55.9540 -55.9520 -55.9499 -55.9442
   -55.9429 -55.9424 -55.9400 -55.9399 -55.9359 -55.9339 -55.9332 -55.9331
   -55.9326 -55.9293 -55.9276 -55.9222 -55.9211 -55.9174 -55.9137 -55.9000
   -55.8967 -55.8960 -55.8930 -55.8810 -55.8785 -55.8768 -55.8736 -55.8734
   -55.8690 -55.8653 -55.8653 -55.8629 -55.8609 -55.8530 -55.8446 -55.8376
   -55.8359 -55.8352 -55.8337 -55.8248 -55.8248 -55.8232 -55.8209 -55.8148
   -55.8146 -55.8141 -55.8065 -55.8062 -55.7989 -55.7965 -55.7953 -55.7921
   -55.7815 -55.7808 -55.7800 -55.7765 -55.7694 -55.7666 -55.7638 -55.7572
   -55.7518 -55.7507 -55.7436 -55.7427 -55.7410 -55.7390 -55.7330 -55.7327
   -55.7301 -55.7155 -55.7101 -55.7086 -55.7076 -55.6955 -55.6920 -55.6888
   -55.6754 -55.6702 -55.6633 -55.6435 -34.7782 -34.6106 -34.5787 -34.5692
   -34.5465 -34.4934 -34.4842 -34.4792 -34.4692 -34.4655 -34.4626 -34.4610
   -34.4544 -34.4402 -34.4314 -34.4143 -34.3982 -34.3935 -34.3925 -34.3763
   -34.3723 -34.3697 -34.3612 -34.3521 -34.3491 -34.3335 -34.3262 -34.3214
   -34.3202 -34.3078 -34.3055 -34.3016 -34.2981 -34.2876 -34.2710 -34.2624
   -34.2387 -34.2352 -34.2244 -34.2151 -34.2094 -34.1874 -34.1707 -34.1552
   -34.1183 -34.0862 -34.0522 -33.9771 -33.8791 -12.8429 -12.8313 -12.8134
   -12.7989 -12.7896 -12.7867 -12.7765 -12.7721 -12.7620 -12.7544 -12.7503
   -12.7446 -12.7332 -12.7299 -12.7250 -12.7195 -12.7130 -12.7106 -12.7054
   -12.7032 -12.6943 -12.6899 -12.6852 -12.6746 -12.6708 -12.6664 -12.6601
   -12.6541 -12.6528 -12.6436 -12.6405 -12.6335 -12.6312 -12.6253 -12.6184
   -12.6173 -12.6118 -12.6064 -12.6038 -12.5980 -12.5898 -12.5836 -12.5814
   -12.5721 -12.5690 -12.5652 -12.5605 -12.5558 -12.5497 -12.5469 -12.5359
   -12.5334 -12.5293 -12.5269 -12.5238 -12.5119 -12.5042 -12.5037 -12.4946
   -12.4899 -12.4822 -12.4788 -12.4743 -12.4672 -12.4650 -12.4598 -12.4530
   -12.4487 -12.4401 -12.4354 -12.4319 -12.4293 -12.4213 -12.4146 -12.4124
   -12.4057 -12.3960 -12.3941 -12.3862 -12.3797 -12.3752 -12.3719 -12.3657
   -12.3599 -12.3548 -12.3492 -12.3457 -12.3396 -12.3342 -12.3301 -12.3218
   -12.3204 -12.3142 -12.3064 -12.3020 -12.2975 -12.2831 -12.2811 -12.2778
   -12.2741 -12.2693 -12.2653 -12.2607 -12.2551 -12.2522 -12.2484 -12.2403
   -12.2378 -12.2287 -12.2222 -12.2175 -12.2153 -12.2077 -12.2045 -12.1960
   -12.1905 -12.1863 -12.1735 -12.1721 -12.1632 -12.1575 -12.1455 -12.1405
   -12.1329 -12.1261 -12.1193 -12.1164 -12.1049 -12.0933 -12.0665 -12.0550
   -12.0490 -12.0459 -12.0291 -12.0232 -12.0219 -12.0157 -11.9576 -11.9336
   -11.9292 -11.9168 -11.8854 -11.8460 -11.8419 -11.8100 -11.8011 -11.7530
     7.0689   7.4271   7.5585   7.8593   8.1255   8.2142   8.3601   8.4958
     8.6860   8.7657   8.8826   8.9488   9.0462   9.1949   9.2344   9.3255
     9.4160   9.4419   9.5559   9.6195   9.6789   9.7151   9.7784   9.8169
     9.8535   9.8926   9.9373   9.9767  10.0226  10.0538  10.0789  10.0827
    10.1090  10.1184  10.1348  10.1423  10.1613  10.1667  10.1947  10.2132
    10.2185  10.2366  10.2458  10.2542  10.2750  10.2986  10.3079  10.3259
    10.3296  10.3411  10.3528  10.3648  10.3757  10.3832  10.3970  10.4075
    10.4134  10.4345  10.4364  10.4480  10.4516  10.4585  10.4691  10.4784
    10.4904  10.4974  10.5041  10.5180  10.5231  10.5307  10.5340  10.5434
    10.5516  10.5603  10.5691  10.5773  10.5858  10.5931  10.5993  10.6087
    10.6134  10.6192  10.6240  10.6406  10.6451  10.6500  10.6552  10.6638
    10.6714  10.6746  10.6842  10.6965  10.7005  10.7076  10.7157  10.7206
    10.7295  10.7343  10.7446  10.7468  10.7602  10.7624  10.7674  10.7733
    10.7839  10.7892  10.7956  10.7977  10.8066  10.8173  10.8212  10.8297
    10.8346  10.8388  10.8487  10.8535  10.8700  10.8719  10.8767  10.8853
    10.8927  10.8960  10.9025  10.9102  10.9202  10.9248  10.9290  10.9314
    10.9372  10.9450  10.9511  10.9589  10.9622  10.9709  10.9786  10.9838
    10.9870  10.9928  10.9965  11.0000  11.0091  11.0200  11.0244  11.0303
    11.0386  11.0407  11.0467  11.0568  11.0640  11.0695  11.0743  11.0796
    11.0890  11.0909  11.0998  11.1068  11.1084  11.1190  11.1234  11.1309
    11.1391  11.1420  11.1470  11.1529  11.1631  11.1667  11.1750  11.1829
    11.1887  11.1921  11.2013  11.2032  11.2116  11.2136  11.2205  11.2268
    11.2294  11.2371  11.2457  11.2549  11.2629  11.2695  11.2789  11.2875
    11.2916  11.2988  11.3056  11.3129  11.3222  11.3293  11.3395  11.3422
    11.3469  11.3537  11.3626  11.3673  11.3747  11.3830  11.3851  11.3976
    11.4041  11.4168  11.4267  11.4345  11.4381  11.4493  11.4545  11.4590
    11.4694  11.4754  11.4813  11.4894  11.4989  11.5056  11.5165  11.5239
    11.5287  11.5371  11.5445  11.5543  11.5584  11.5659  11.5768  11.5877
    11.5950  11.5972  11.6125  11.6197  11.6223  11.6398  11.6438  11.6488
    11.6593  11.6638  11.6755  11.6820  11.6900  11.6971  11.7076  11.7133
    11.7278  11.7347  11.7397  11.7492  11.7700  11.7826  11.7861  11.7943
    11.8064  11.8175  11.8221  11.8325  11.8364  11.8481  11.8521  11.8722
    11.8833  11.8872  11.9025  11.9192  11.9211  11.9351  11.9421  11.9503
    11.9633  11.9698  11.9815  11.9921  12.0099  12.0341  12.0426  12.0658
    12.0756  12.0892  12.1027  12.1171  12.1341  12.1740  12.1830  12.2056
    12.2189  12.2442  12.2625  12.3030  12.3312  12.3487  12.3729  12.4300
    12.4511  12.4769  12.5067  12.5295  12.5794  12.6127  12.6469  12.6794
    12.7102  12.7294  12.7453  12.7994  12.8199  12.8352  12.8667  12.9104
    12.9165  12.9891  13.0101  13.0521  13.0784  13.1285  13.1373  13.1537
    13.1725  13.2039  13.2356  13.2689  13.2920  13.3345  13.3431  13.3796
    13.4041  13.4165  13.4368  13.4732  13.4775  13.5179  13.5551  13.5618
    13.5969  13.6158  13.6410  13.6531  13.6699  13.6939  13.7117  13.7341
    13.7657  13.7966  13.8084  13.8196  13.8542  13.8621  13.8926  13.9033
    13.9399  13.9533  13.9684  13.9900  14.0071  14.0189  14.0273  14.0559
    14.0808  14.1063  14.1235  14.1397  14.1570  14.1826  14.1930  14.2181
    14.2266  14.2349  14.2657  14.2855  14.3174  14.3316  14.3449  14.3681
    14.3799  14.3930  14.4198  14.4422  14.4515  14.4613  14.4880  14.4991
    14.5228  14.5349  14.5515  14.5735  14.5927  14.6205  14.6426  14.6719
    14.6824  14.6920  14.7301  14.7401  14.7572  14.7737  14.8079  14.8145
    14.8308  14.8574  14.8924  14.9047  14.9165  14.9317  14.9573  14.9747
    14.9986  15.0151  15.0386  15.0574  15.0672  15.0989  15.1272  15.1468
    15.1697  15.2085  15.2241  15.2471  15.2864  15.3024  15.3292  15.3734
    15.3951  15.4038  15.4327  15.4481  15.4836  15.5201  15.5449  15.5639
    15.5952  15.6116  15.6498  15.6723  15.7217  15.7544  15.7602  15.7878
    15.8122  15.8537  15.8929  15.8979  15.9482  15.9731  15.9920  16.0594
    16.1025  16.1280  16.1545  16.1876  16.2083  16.2428  16.2704  16.3091
    16.3274  16.3642  16.4000  16.4240  16.4489  16.4864  16.5143  16.5462
    16.5640  16.5956  16.6170  16.6310  16.7014  16.7192  16.7402  16.7726
    16.8031  16.8407  16.8739  16.9058  16.9211  16.9670  17.0056  17.0207
    17.0388  17.0685  17.0984  17.1213  17.1566  17.1748  17.1878  17.2237
    17.2372  17.2654  17.2990  17.3475  17.3619  17.3929  17.4206  17.4427
    17.4612  17.4824  17.5109  17.5457  17.5663  17.5944  17.6134  17.6326
    17.6711  17.6912  17.7042  17.7281  17.7571  17.7788  17.7922  17.8357
    17.8618  17.8733  17.8946  17.9296  17.9360  17.9787  18.0009  18.0099
    18.0240  18.0763  18.1061  18.1277  18.1579  18.1925  18.2032  18.2298
    18.2559  18.2819  18.3081  18.3376  18.3562  18.3860  18.4031  18.4270
    18.4608  18.4775  18.5226  18.5417  18.5629  18.5963  18.6302  18.6448
    18.6852  18.7266  18.7397  18.7853  18.8360  18.8591  18.8889  18.9376
    18.9651  19.0009  19.0458  19.0749  19.1413  19.1704  19.1976  19.2373
    19.2785  19.3248  19.3610  19.3820  19.4447  19.4777  19.5145  19.5660
    19.6142  19.6446  19.7511  19.8289  19.8569  19.8892  19.9327  19.9772
    20.0472  20.1067  20.1232  20.2328  20.2998  20.3405  20.3869  20.4314
    20.4740  20.5302  20.5625  20.5960  20.6594  20.7376  20.7781  20.8479
    20.8753  20.8860  20.9126  20.9787  21.0670  21.1088  21.1448  21.2098
    21.2425  21.2612  21.2916  21.3267  21.3740  21.4027  21.4438  21.4825
    21.5246  21.5722  21.6058  21.6441  21.6662  21.7265  21.7521  21.7870
    21.8358  21.8674  21.9230  21.9773  22.0071  22.0627  22.0828  22.1402
    22.1802  22.2246  22.2557  22.2815  22.3327  22.3563  22.4078  22.4684
    22.5006  22.5355  22.5728  22.6249  22.6763  22.7196  22.7385  22.7661
    22.8071  22.8496  22.8890  22.9328  22.9704  23.0171  23.0613  23.0797
    23.1121  23.1947  23.2131  23.2369  23.2678  23.3229  23.3438  23.3974
    23.4477  23.4780  23.5000  23.5211  23.5578  23.5989  23.6406  23.6681
    23.6963  23.7119  23.8095  23.8499  23.8792  23.9390  23.9844  23.9984
    24.0329  24.0876  24.1121  24.1423  24.1763  24.2249  24.2428  24.2963
    24.3248  24.3498  24.3781  24.4510  24.4766  24.4883  24.5245  24.5488
    24.5768  24.6377  24.6706  24.7143  24.7420  24.7835  24.8042  24.8321
    24.8767  24.9268  24.9495  24.9880  25.0183  25.0550

     occupation numbers 
     1.0000   1.0000   1.0000   1.0000   1.0000   1.0000   1.0000   1.0000
     1.0000   1.0000   1.0000   1.0000   1.0000   1.0000   1.0000   1.0000
     1.0000   1.0000   1.0000   1.0000   1.0000   1.0000   1.0000   1.0000
     1.0000   1.0000   1.0000   1.0000   1.0000   1.0000   1.0000   1.0000
     1.0000   1.0000   1.0000   1.0000   1.0000   1.0000   1.0000   1.0000
     1.0000   1.0000   1.0000   1.0000   1.0000   1.0000   1.0000   1.0000
     1.0000   1.0000   1.0000   1.0000   1.0000   1.0000   1.0000   1.0000
     1.0000   1.0000   1.0000   1.0000   1.0000   1.0000   1.0000   1.0000
     1.0000   1.0000   1.0000   1.0000   1.0000   1.0000   1.0000   1.0000
     1.0000   1.0000   1.0000   1.0000   1.0000   1.0000   1.0000   1.0000
     1.0000   1.0000   1.0000   1.0000   1.0000   1.0000   1.0000   1.0000
     1.0000   1.0000   1.0000   1.0000   1.0000   1.0000   1.0000   1.0000
     1.0000   1.0000   1.0000   1.0000   1.0000   1.0000   1.0000   1.0000
     1.0000   1.0000   1.0000   1.0000   1.0000   1.0000   1.0000   1.0000
     1.0000   1.0000   1.0000   1.0000   1.0000   1.0000   1.0000   1.0000
     1.0000   1.0000   1.0000   1.0000   1.0000   1.0000   1.0000   1.0000
     1.0000   1.0000   1.0000   1.0000   1.0000   1.0000   1.0000   1.0000
     1.0000   1.0000   1.0000   1.0000   1.0000   1.0000   1.0000   1.0000
     1.0000   1.0000   1.0000   1.0000   1.0000   1.0000   1.0000   1.0000
     1.0000   1.0000   1.0000   1.0000   1.0000   1.0000   1.0000   1.0000
     1.0000   1.0000   1.0000   1.0000   1.0000   1.0000   1.0000   1.0000
     1.0000   1.0000   1.0000   1.0000   1.0000   1.0000   1.0000   1.0000
     1.0000   1.0000   1.0000   1.0000   1.0000   1.0000   1.0000   1.0000
     1.0000   1.0000   1.0000   1.0000   1.0000   1.0000   1.0000   1.0000
     1.0000   1.0000   1.0000   1.0000   1.0000   1.0000   1.0000   1.0000
     1.0000   1.0000   1.0000   1.0000   1.0000   1.0000   1.0000   1.0000
     1.0000   1.0000   1.0000   1.0000   1.0000   1.0000   1.0000   1.0000
     1.0000   1.0000   1.0000   1.0000   1.0000   1.0000   1.0000   1.0000
     1.0000   1.0000   1.0000   1.0000   1.0000   1.0000   1.0000   1.0000
     1.0000   1.0000   1.0000   1.0000   1.0000   1.0000   1.0000   1.0000
     1.0000   1.0000   1.0000   1.0000   1.0000   1.0000   1.0000   1.0000
     1.0000   1.0000   1.0000   1.0000   1.0000   1.0000   1.0000   1.0000
     1.0000   1.0000   1.0000   1.0000   1.0000   1.0000   1.0000   1.0000
     1.0000   1.0000   1.0000   1.0000   1.0000   1.0000   1.0000   1.0000
     1.0000   1.0000   1.0000   1.0000   1.0000   1.0000   1.0000   1.0000
     1.0000   1.0000   1.0000   1.0000   1.0000   1.0000   1.0000   1.0000
     1.0000   1.0000   1.0000   1.0000   1.0000   1.0000   1.0000   1.0000
[...]
     atom   84 type  2   force =     0.00007871   -0.00000665    0.00014520
     atom   85 type  3   force =     0.00032965    0.00061675   -0.00032396
     atom   86 type  2   force =    -0.00022223    0.00013193    0.00002050
     atom   87 type  3   force =    -0.00230684   -0.00179904   -0.00413300
     atom   88 type  3   force =    -0.00343020    0.00147663   -0.00128976
     atom   89 type  1   force =     0.00073001    0.00010169   -0.00118154
     atom   90 type  3   force =    -0.00112778   -0.00145213    0.00369142
     atom   91 type  2   force =    -0.00003724    0.00021615    0.00014096
     atom   92 type  2   force =     0.00003139   -0.00021811   -0.00003500
     atom   93 type  2   force =    -0.00009342    0.00023647   -0.00013464
     atom   94 type  2   force =    -0.00006767    0.00046762   -0.00020246
     atom   95 type  2   force =    -0.00010427   -0.00018008    0.00014859
     atom   96 type  3   force =    -0.00003469    0.00118557   -0.00127010
     atom   97 type  3   force =    -0.00018572    0.00001003    0.00039653
     atom   98 type  2   force =     0.00006542   -0.00010691    0.00029377
     atom   99 type  2   force =    -0.00005664    0.00006118   -0.00033541
     atom  100 type  3   force =    -0.00128497   -0.00117157    0.00009703
     The Hubbard contrib.    to forces
     atom    1 type  2   force =     0.00000000    0.00000000    0.00000000
     atom    2 type  3   force =     0.00000000    0.00000000    0.00000000
     atom    3 type  2   force =     0.00000000    0.00000000    0.00000000
     atom    4 type  2   force =     0.00000000    0.00000000    0.00000000
     atom    5 type  3   force =     0.00000000    0.00000000    0.00000000
     atom    6 type  2   force =     0.00000000    0.00000000    0.00000000
     atom    7 type  2   force =     0.00000000    0.00000000    0.00000000
     atom    8 type  2   force =     0.00000000    0.00000000    0.00000000
     atom    9 type  3   force =     0.00000000    0.00000000    0.00000000
     atom   10 type  2   force =     0.00000000    0.00000000    0.00000000
     atom   11 type  3   force =     0.00000000    0.00000000    0.00000000
     atom   12 type  3   force =     0.00000000    0.00000000    0.00000000
     atom   13 type  3   force =     0.00000000    0.00000000    0.00000000
     atom   14 type  3   force =     0.00000000    0.00000000    0.00000000
     atom   15 type  2   force =     0.00000000    0.00000000    0.00000000
     atom   16 type  3   force =     0.00000000    0.00000000    0.00000000
     atom   17 type  2   force =     0.00000000    0.00000000    0.00000000
     atom   18 type  2   force =     0.00000000    0.00000000    0.00000000
     atom   19 type  3   force =     0.00000000    0.00000000    0.00000000
     atom   20 type  2   force =     0.00000000    0.00000000    0.00000000
     atom   21 type  2   force =     0.00000000    0.00000000    0.00000000
     atom   22 type  2   force =     0.00000000    0.00000000    0.00000000
     atom   23 type  3   force =     0.00000000    0.00000000    0.00000000
     atom   24 type  2   force =     0.00000000    0.00000000    0.00000000
     atom   25 type  2   force =     0.00000000    0.00000000    0.00000000
     atom   26 type  3   force =     0.00000000    0.00000000    0.00000000
     atom   27 type  2   force =     0.00000000    0.00000000    0.00000000
     atom   28 type  2   force =     0.00000000    0.00000000    0.00000000
     atom   29 type  3   force =     0.00000000    0.00000000    0.00000000
     atom   30 type  2   force =     0.00000000    0.00000000    0.00000000
     atom   31 type  3   force =     0.00000000    0.00000000    0.00000000
     atom   32 type  3   force =     0.00000000    0.00000000    0.00000000
     atom   33 type  3   force =     0.00000000    0.00000000    0.00000000
     atom   34 type  1   force =     0.00000000    0.00000000    0.00000000
     atom   35 type  2   force =     0.00000000    0.00000000    0.00000000
     atom   36 type  2   force =     0.00000000    0.00000000    0.00000000
     atom   37 type  3   force =     0.00000000    0.00000000    0.00000000
     atom   38 type  3   force =     0.00000000    0.00000000    0.00000000
     atom   39 type  2   force =     0.00000000    0.00000000    0.00000000
     atom   40 type  3   force =     0.00000000    0.00000000    0.00000000
     atom   41 type  3   force =     0.00000000    0.00000000    0.00000000
     atom   42 type  3   force =     0.00000000    0.00000000    0.00000000
     atom   43 type  2   force =     0.00000000    0.00000000    0.00000000
     atom   44 type  3   force =     0.00000000    0.00000000    0.00000000
     atom   45 type  2   force =     0.00000000    0.00000000    0.00000000
     atom   46 type  3   force =     0.00000000    0.00000000    0.00000000
     atom   47 type  3   force =     0.00000000    0.00000000    0.00000000
     atom   48 type  3   force =     0.00000000    0.00000000    0.00000000
     atom   49 type  2   force =     0.00000000    0.00000000    0.00000000
     atom   50 type  3   force =     0.00000000    0.00000000    0.00000000
     atom   51 type  3   force =     0.00000000    0.00000000    0.00000000
     atom   52 type  3   force =     0.00000000    0.00000000    0.00000000
     atom   53 type  2   force =     0.00000000    0.00000000    0.00000000
     atom   54 type  3   force =     0.00000000    0.00000000    0.00000000
     atom   55 type  3   force =     0.00000000    0.00000000    0.00000000
     atom   56 type  2   force =     0.00000000    0.00000000    0.00000000
     atom   57 type  3   force =     0.00000000    0.00000000    0.00000000
     atom   58 type  2   force =     0.00000000    0.00000000    0.00000000
     atom   59 type  3   force =     0.00000000    0.00000000    0.00000000
     atom   60 type  3   force =     0.00000000    0.00000000    0.00000000
     atom   61 type  2   force =     0.00000000    0.00000000    0.00000000
     atom   62 type  3   force =     0.00000000    0.00000000    0.00000000
     atom   63 type  2   force =     0.00000000    0.00000000    0.00000000
     atom   64 type  2   force =     0.00000000    0.00000000    0.00000000
     atom   65 type  3   force =     0.00000000    0.00000000    0.00000000
     atom   66 type  2   force =     0.00000000    0.00000000    0.00000000
     atom   67 type  2   force =     0.00000000    0.00000000    0.00000000
     atom   68 type  2   force =     0.00000000    0.00000000    0.00000000
     atom   69 type  2   force =     0.00000000    0.00000000    0.00000000
     atom   70 type  3   force =     0.00000000    0.00000000    0.00000000
     atom   71 type  2   force =     0.00000000    0.00000000    0.00000000
     atom   72 type  2   force =     0.00000000    0.00000000    0.00000000
     atom   73 type  3   force =     0.00000000    0.00000000    0.00000000
     atom   74 type  2   force =     0.00000000    0.00000000    0.00000000
     atom   75 type  2   force =     0.00000000    0.00000000    0.00000000
     atom   76 type  3   force =     0.00000000    0.00000000    0.00000000
     atom   77 type  3   force =     0.00000000    0.00000000    0.00000000
     atom   78 type  2   force =     0.00000000    0.00000000    0.00000000
     atom   79 type  3   force =     0.00000000    0.00000000    0.00000000
     atom   80 type  2   force =     0.00000000    0.00000000    0.00000000
     atom   81 type  3   force =     0.00000000    0.00000000    0.00000000
     atom   82 type  3   force =     0.00000000    0.00000000    0.00000000
     atom   83 type  3   force =     0.00000000    0.00000000    0.00000000
     atom   84 type  2   force =     0.00000000    0.00000000    0.00000000
     atom   85 type  3   force =     0.00000000    0.00000000    0.00000000
     atom   86 type  2   force =     0.00000000    0.00000000    0.00000000
     atom   87 type  3   force =     0.00000000    0.00000000    0.00000000
     atom   88 type  3   force =     0.00000000    0.00000000    0.00000000
     atom   89 type  1   force =     0.00000000    0.00000000    0.00000000
     atom   90 type  3   force =     0.00000000    0.00000000    0.00000000
     atom   91 type  2   force =     0.00000000    0.00000000    0.00000000
     atom   92 type  2   force =     0.00000000    0.00000000    0.00000000
     atom   93 type  2   force =     0.00000000    0.00000000    0.00000000
     atom   94 type  2   force =     0.00000000    0.00000000    0.00000000
     atom   95 type  2   force =     0.00000000    0.00000000    0.00000000
     atom   96 type  3   force =     0.00000000    0.00000000    0.00000000
     atom   97 type  3   force =     0.00000000    0.00000000    0.00000000
     atom   98 type  2   force =     0.00000000    0.00000000    0.00000000
     atom   99 type  2   force =     0.00000000    0.00000000    0.00000000
     atom  100 type  3   force =     0.00000000    0.00000000    0.00000000
     The SCF correction term to forces
     atom    1 type  2   force =     0.00071954    0.00037245    0.00017176
     atom    2 type  3   force =     0.00046502   -0.00000773    0.00014751
     atom    3 type  2   force =     0.00066720    0.00032679    0.00049917
     atom    4 type  2   force =     0.00092872    0.00033225   -0.00025819
     atom    5 type  3   force =     0.00073997    0.00004547   -0.00045927
     atom    6 type  2   force =     0.00044703    0.00065343   -0.00026610
     atom    7 type  2   force =     0.00146854    0.00057251   -0.00016430
     atom    8 type  2   force =     0.00024756   -0.00001122   -0.00054362
     atom    9 type  3   force =     0.00038621    0.00024418    0.00027147
     atom   10 type  2   force =     0.00030075    0.00010351    0.00062212
     atom   11 type  3   force =     0.00037692   -0.00010627    0.00006121
     atom   12 type  3   force =     0.00056822   -0.00016303    0.00033641
     atom   13 type  3   force =     0.00075594    0.00047990   -0.00030348
     atom   14 type  3   force =     0.00056898   -0.00003887    0.00002003
     atom   15 type  2   force =     0.00090232   -0.00012429   -0.00066841
     atom   16 type  3   force =     0.00057545   -0.00030324   -0.00021267
     atom   17 type  2   force =     0.00114931   -0.00038213    0.00059982
     atom   18 type  2   force =     0.00107265   -0.00051711    0.00012259
     atom   19 type  3   force =     0.00019152   -0.00047652   -0.00034404
     atom   20 type  2   force =     0.00103931   -0.00046107   -0.00053195
     atom   21 type  2   force =     0.00133922   -0.00035877   -0.00027000
     atom   22 type  2   force =     0.00129574   -0.00027090    0.00037099
     atom   23 type  3   force =     0.00052297   -0.00004471    0.00017562
     atom   24 type  2   force =     0.00103188   -0.00066976   -0.00061946
     atom   25 type  2   force =     0.00049105   -0.00039461   -0.00033076
     atom   26 type  3   force =    -0.00014373   -0.00002628    0.00005602
     atom   27 type  2   force =    -0.00083208   -0.00012903    0.00014793
     atom   28 type  2   force =    -0.00017448    0.00000343    0.00021137
     atom   29 type  3   force =     0.00020056    0.00036585    0.00020958
     atom   30 type  2   force =    -0.00035561    0.00074377   -0.00034098
     atom   31 type  3   force =    -0.00058533    0.00026303   -0.00004712
     atom   32 type  3   force =     0.00005294    0.00019016   -0.00019214
     atom   33 type  3   force =    -0.00047371   -0.00009771   -0.00021967
     atom   34 type  1   force =    -0.00004927    0.00001039    0.00007150
     atom   35 type  2   force =    -0.00054793    0.00024459    0.00084682
     atom   36 type  2   force =     0.00022635   -0.00000879    0.00082537
     atom   37 type  3   force =    -0.00056757   -0.00001383    0.00004954
     atom   38 type  3   force =    -0.00017746   -0.00014149   -0.00057194
     atom   39 type  2   force =    -0.00010502   -0.00016002   -0.00022190
     atom   40 type  3   force =     0.00033041   -0.00002611    0.00035008
     atom   41 type  3   force =    -0.00050690   -0.00008076    0.00031564
     atom   42 type  3   force =     0.00011321   -0.00034438    0.00004659
     atom   43 type  2   force =    -0.00091890   -0.00081432   -0.00049983
     atom   44 type  3   force =    -0.00042838   -0.00020493   -0.00015124
     atom   45 type  2   force =     0.00016387    0.00006933    0.00031905
     atom   46 type  3   force =    -0.00049638    0.00012229    0.00014611
     atom   47 type  3   force =    -0.00025208   -0.00011055    0.00013199
     atom   48 type  3   force =    -0.00022390    0.00006357   -0.00015448
     atom   49 type  2   force =    -0.00055516   -0.00034381   -0.00037868
     atom   50 type  3   force =     0.00033590   -0.00001312   -0.00009423
     atom   51 type  3   force =    -0.00071054    0.00012913    0.00003414
     atom   52 type  3   force =    -0.00044447    0.00032624    0.00029394
     atom   53 type  2   force =    -0.00075732    0.00011740    0.00033484
     atom   54 type  3   force =    -0.00068267    0.00036592   -0.00002289
     atom   55 type  3   force =    -0.00069782    0.00023671   -0.00024004
     atom   56 type  2   force =    -0.00045778   -0.00029949    0.00007938
     atom   57 type  3   force =    -0.00037397    0.00001165    0.00021172
     atom   58 type  2   force =    -0.00105477    0.00014999    0.00035334
     atom   59 type  3   force =    -0.00034886    0.00025574   -0.00023208
     atom   60 type  3   force =    -0.00029295    0.00020969   -0.00005220
     atom   61 type  2   force =    -0.00133892    0.00033880   -0.00049307
     atom   62 type  3   force =    -0.00058227    0.00002386    0.00028198
     atom   63 type  2   force =    -0.00080632   -0.00024328    0.00051282
     atom   64 type  2   force =    -0.00123233   -0.00016380    0.00043026
     atom   65 type  3   force =    -0.00053015   -0.00019611   -0.00010226
     atom   66 type  2   force =    -0.00111186   -0.00037944   -0.00059715
     atom   67 type  2   force =    -0.00067152   -0.00043793   -0.00026355
     atom   68 type  2   force =    -0.00116656   -0.00010280    0.00006133
     atom   69 type  2   force =    -0.00143842    0.00003072    0.00040774
     atom   70 type  3   force =    -0.00061207    0.00000289    0.00006586
     atom   71 type  2   force =    -0.00086414   -0.00041069   -0.00036837
     atom   72 type  2   force =    -0.00085423   -0.00000723   -0.00040089
     atom   73 type  3   force =    -0.00048284   -0.00022013   -0.00029671
     atom   74 type  2   force =    -0.00126239   -0.00003860   -0.00008006
     atom   75 type  2   force =    -0.00018711    0.00055005    0.00038875
     atom   76 type  3   force =     0.00068396    0.00028195    0.00031364
     atom   77 type  3   force =    -0.00012607    0.00023176    0.00007397
     atom   78 type  2   force =     0.00077712    0.00054550    0.00034160
     atom   79 type  3   force =     0.00002580    0.00009009   -0.00026161
     atom   80 type  2   force =     0.00063652    0.00084905   -0.00057017
     atom   81 type  3   force =     0.00003407    0.00028931    0.00001253
     atom   82 type  3   force =     0.00056248    0.00041208    0.00002647
     atom   83 type  3   force =     0.00019559   -0.00025487    0.00019819
     atom   84 type  2   force =     0.00003442   -0.00010052    0.00012003
     atom   85 type  3   force =     0.00065347    0.00029747   -0.00010763
     atom   86 type  2   force =     0.00113843    0.00039181   -0.00040540
     atom   87 type  3   force =     0.00037749   -0.00029435   -0.00015962
     atom   88 type  3   force =    -0.00031822   -0.00031241    0.00013919
     atom   89 type  1   force =     0.00014391   -0.00008562    0.00005115
     atom   90 type  3   force =     0.00016406   -0.00028698    0.00032569
     atom   91 type  2   force =     0.00086251   -0.00003605   -0.00007883
     atom   92 type  2   force =     0.00034771   -0.00043509   -0.00039404
     atom   93 type  2   force =    -0.00003740   -0.00027383   -0.00041814
     atom   94 type  2   force =     0.00090675   -0.00050533   -0.00001328
     atom   95 type  2   force =    -0.00067179   -0.00010321    0.00019399
     atom   96 type  3   force =     0.00014753    0.00000000    0.00043724
     atom   97 type  3   force =     0.00050011   -0.00016580    0.00002453
     atom   98 type  2   force =    -0.00044743   -0.00022848   -0.00002728
     atom   99 type  2   force =    -0.00013551   -0.00032100   -0.00073098
     atom  100 type  3   force =     0.00017784   -0.00036809   -0.00032745

     Total force =     0.277999     Total SCF correction =     0.008091

     Writing output data file Zr49Cu49Al2.save
 
     init_run     :     42.69s CPU     43.69s WALL (       1 calls)
     electrons    :   6905.75s CPU   7027.53s WALL (       1 calls)
     forces       :     27.25s CPU     27.95s WALL (       1 calls)

     Called by init_run:
     wfcinit      :     31.28s CPU     31.64s WALL (       1 calls)
     wfcinit:atom :      0.06s CPU      0.10s WALL (       1 calls)
     wfcinit:wfcr :     30.93s CPU     31.20s WALL (       1 calls)
     potinit      :      2.20s CPU      2.28s WALL (       1 calls)

     Called by electrons:
     c_bands      :   5890.18s CPU   5964.44s WALL (      60 calls)
     sum_band     :    860.95s CPU    885.44s WALL (      60 calls)
     v_of_rho     :     23.95s CPU     24.73s WALL (      61 calls)
     v_h          :      2.32s CPU      2.40s WALL (      61 calls)
     v_xc         :     21.98s CPU     22.70s WALL (      62 calls)
     newd         :    109.60s CPU    130.80s WALL (      61 calls)
     PAW_pot      :     11.07s CPU     11.53s WALL (      61 calls)
     mix_rho      :      6.20s CPU      6.54s WALL (      60 calls)

     Called by c_bands:
     init_us_2    :     10.90s CPU     11.00s WALL (     121 calls)
     cegterg      :   5460.50s CPU   5522.42s WALL (      60 calls)

     Called by sum_band:
     sum_band:bec :      1.69s CPU      1.70s WALL (      60 calls)
     addusdens    :    144.36s CPU    163.79s WALL (      60 calls)

     Called by *egterg:
     h_psi        :   2283.69s CPU   2297.78s WALL (     158 calls)
     s_psi        :    522.03s CPU    524.99s WALL (     158 calls)
     g_psi        :      3.14s CPU      3.15s WALL (      97 calls)
     cdiaghg      :   1166.56s CPU   1184.10s WALL (     157 calls)
     cegterg:over :    610.24s CPU    613.36s WALL (      97 calls)
     cegterg:upda :    351.03s CPU    352.61s WALL (      97 calls)
     cegterg:last :    314.95s CPU    315.73s WALL (      60 calls)
     cdiaghg:chol :     58.20s CPU     58.80s WALL (     157 calls)
     cdiaghg:inve :     69.15s CPU     69.65s WALL (     157 calls)
     cdiaghg:para :    175.33s CPU    182.39s WALL (     314 calls)

     Called by h_psi:
     h_psi:pot    :   2272.70s CPU   2286.77s WALL (     158 calls)
     h_psi:calbec :    496.94s CPU    498.37s WALL (     158 calls)
     vloc_psi     :   1252.79s CPU   1263.42s WALL (     158 calls)
     add_vuspsi   :    522.97s CPU    524.97s WALL (     158 calls)

     General routines
     calbec       :    751.44s CPU    753.83s WALL (     222 calls)
     fft          :     29.45s CPU     30.81s WALL (     983 calls)
     ffts         :      0.72s CPU      0.74s WALL (     121 calls)
     fftw         :   1119.38s CPU   1129.22s WALL (  334952 calls)
     interpolate  :      4.90s CPU      5.17s WALL (     121 calls)
 
     Parallel routines
     fft_scatt_xy :     94.48s CPU     95.29s WALL (  336056 calls)
     fft_scatt_yz :    205.38s CPU    208.13s WALL (  336056 calls)

     PAW routines
     PAW_pot      :     11.07s CPU     11.53s WALL (      61 calls)
 
     PWSCF        :     1h56m CPU        2h 3m WALL

 
   This run was terminated on:  19:29: 7  19Apr2019            

=------------------------------------------------------------------------------=
   JOB DONE.
=------------------------------------------------------------------------------=
