
     Program PWSCF v.6.2 (svn rev. 13949:13950) starts on 19Apr2019 at 18:51:19 

     This program is part of the open-source Quantum ESPRESSO suite
     for quantum simulation of materials; please cite
         "P. Giannozzi et al., J. Phys.:Condens. Matter 21 395502 (2009);
         "P. Giannozzi et al., J. Phys.:Condens. Matter 29 465901 (2017);
          URL http://www.quantum-espresso.org", 
     in publications or presentations arising from this work. More details at
     http://www.quantum-espresso.org/quote

     Parallel version (MPI & OpenMP), running on     192 processor cores
     Number of MPI processes:               192
     Threads/MPI process:                     1

     MPI processes distributed on     8 nodes
     K-points division:     npool     =       8
     R & G space division:  proc/nbgrp/npool/nimage =      24
     Waiting for input...
     Reading input from standard input

     Current dimensions of program PWSCF are:
     Max number of different atomic species (ntypx) = 10
     Max number of k-points (npk) =  40000
     Max angular momentum in pseudopotentials (lmaxx) =  3
               file Al.aryjr-1.0.0-ld1.UPF: wavefunction(s)  3S 3P renormalized
               file Cu.aryjr-1.0.0-ld1.UPF: wavefunction(s)  4S 3P 3D renormalized
               file Zr.aryjr-1.0.0-ld1.UPF: wavefunction(s)  4S 4P renormalized

     Subspace diagonalization in iterative solution of the eigenvalue problem:
     one sub-group per band group will be used
     scalapack distributed-memory algorithm (size of sub-group:  3*  3 procs)

 
     Parallelization info
     --------------------
     sticks:   dense  smooth     PW     G-vecs:    dense   smooth      PW
     Min         959     479    123                87621    30984    4053
     Max         961     481    124                87622    30988    4058
     Sum       23029   11521   2965              2102909   743689   97341
 

     Title: 
     Zr49Cu49Al2                                                                


     bravais-lattice index     =            0
     lattice parameter (alat)  =      22.7304  a.u.
     unit-cell volume          =    9395.3366 (a.u.)^3
     number of atoms/cell      =          100
     number of atomic types    =            3
     number of electrons       =      1525.00
     number of Kohn-Sham states=         1086
     kinetic-energy cutoff     =      70.0000  Ry
     charge density cutoff     =     560.0000  Ry
     convergence threshold     =      1.0E-06
     mixing beta               =       0.4000
     number of iterations used =            8  plain     mixing
     Exchange-correlation      =  SLA  PW   PBX  PBC ( 1  4  3  4 0 0)

     celldm(1)=  22.730420  celldm(2)=   0.000000  celldm(3)=   0.000000
     celldm(4)=   0.000000  celldm(5)=   0.000000  celldm(6)=   0.000000

     crystal axes: (cart. coord. in units of alat)
               a(1) = (   1.000000   0.000000   0.000000 )  
               a(2) = (   0.000000   1.000000   0.000000 )  
               a(3) = (   0.000000   0.000000   0.800000 )  

     reciprocal axes: (cart. coord. in units 2 pi/alat)
               b(1) = (  1.000000  0.000000  0.000000 )  
               b(2) = (  0.000000  1.000000  0.000000 )  
               b(3) = (  0.000000  0.000000  1.250000 )  


     PseudoPot. # 1 for Al read from file:
     /scratch/rmnvm/ary.junior/UPFs/Al.aryjr-1.0.0-ld1.UPF
     MD5 check sum: 23518be3108914e66f28d0b5ae5ea896
     Pseudo is Projector augmented-wave + core cor, Zval =  3.0
     Generated using "atomic" code by A. Dal Corso  v.5.3.0 svn rev. 11974
     Shape of augmentation charge: PSQ
     Using radial grid of 1135 points,  4 beta functions with: 
                l(1) =   0
                l(2) =   0
                l(3) =   1
                l(4) =   1
     Q(r) pseudized with 0 coefficients 


     PseudoPot. # 2 for Cu read from file:
     /scratch/rmnvm/ary.junior/UPFs/Cu.aryjr-1.0.0-ld1.UPF
     MD5 check sum: 9308548b6d8348cb0f7fa79efd90ef1e
     Pseudo is Projector augmented-wave + core cor, Zval = 19.0
     Generated using "atomic" code by A. Dal Corso  v.5.3.0 svn rev. 11974
     Shape of augmentation charge: PSQ
     Using radial grid of 1199 points,  6 beta functions with: 
                l(1) =   0
                l(2) =   0
                l(3) =   1
                l(4) =   1
                l(5) =   2
                l(6) =   2
     Q(r) pseudized with 0 coefficients 


     PseudoPot. # 3 for Zr read from file:
     /scratch/rmnvm/ary.junior/UPFs/Zr.aryjr-1.0.0-ld1.UPF
     MD5 check sum: 20f111a850f3481eb9ed9a4dbb9cca44
     Pseudo is Projector augmented-wave + core cor, Zval = 12.0
     Generated using "atomic" code by A. Dal Corso  v.5.3.0 svn rev. 11974
     Shape of augmentation charge: PSQ
     Using radial grid of 1225 points,  6 beta functions with: 
                l(1) =   0
                l(2) =   0
                l(3) =   1
                l(4) =   1
                l(5) =   2
                l(6) =   2
     Q(r) pseudized with 0 coefficients 


     atomic species   valence    mass     pseudopotential
        Al             3.00    26.98150     Al( 1.00)
        Cu            19.00    63.54630     Cu( 1.00)
        Zr            12.00    91.22400     Zr( 1.00)

     No symmetry found


                                    s                        frac. trans.

      isym =  1     identity                                     

 cryst.   s( 1) = (     1          0          0      )
                  (     0          1          0      )
                  (     0          0          1      )

 cart.    s( 1) = (  1.0000000  0.0000000  0.0000000 )
                  (  0.0000000  1.0000000  0.0000000 )
                  (  0.0000000  0.0000000  1.0000000 )


   Cartesian axes

     site n.     atom                  positions (alat units)
         1           Cu  tau(   1) = (   0.1532540   0.2277590   0.1254280  )
         2           Zr  tau(   2) = (   0.2632450  -0.0190070   0.1430424  )
         3           Cu  tau(   3) = (   0.1770600   0.1315620   0.2699000  )
         4           Cu  tau(   4) = (   0.1041000   0.0611130   0.4731096  )
         5           Zr  tau(   5) = (   0.0179050   0.0327190   0.6365600  )
         6           Cu  tau(   6) = (   0.2603280   0.0656340   0.5942568  )
         7           Cu  tau(   7) = (   0.1177750   0.1023710   0.7889888  )
         8           Cu  tau(   8) = (   0.2607600   0.3549830   0.0367480  )
         9           Zr  tau(   9) = (  -0.0132520   0.2717730   0.2452120  )
        10           Cu  tau(  10) = (   0.2185700   0.3285600   0.2694664  )
        11           Zr  tau(  11) = (   0.1152240   0.4699240   0.1314744  )
        12           Zr  tau(  12) = (   0.0615040   0.4952260   0.3475128  )
        13           Zr  tau(  13) = (   0.1385390   0.2523210   0.6452112  )
        14           Zr  tau(  14) = (   0.1772030   0.4605960   0.5296760  )
        15           Cu  tau(  15) = (   0.1140550   0.4794900   0.7445104  )
        16           Zr  tau(  16) = (   0.1178980   0.6997470   0.0138048  )
        17           Cu  tau(  17) = (   0.0775240   0.7324330   0.3353376  )
        18           Cu  tau(  18) = (   0.0595990   0.6651690   0.4905816  )
        19           Zr  tau(  19) = (   0.2258380   0.6737150   0.6286368  )
        20           Cu  tau(  20) = (  -0.0091150   0.6101890   0.6462200  )
        21           Cu  tau(  21) = (   0.0411810   0.9211880  -0.0161752  )
        22           Cu  tau(  22) = (   0.1181520   0.8230530   0.1790016  )
        23           Zr  tau(  23) = (   0.1762560   0.9250130   0.3446712  )
        24           Cu  tau(  24) = (   0.0470770   0.8041300   0.6365032  )
        25           Cu  tau(  25) = (   0.1929970   0.8760390   0.5363624  )
        26           Zr  tau(  26) = (   0.3771530   0.2235980   0.1684136  )
        27           Cu  tau(  27) = (   0.5030380   0.0370620   0.1905848  )
        28           Cu  tau(  28) = (   0.3667550   0.0675060   0.3075048  )
        29           Zr  tau(  29) = (   0.2658580   0.2188980   0.4365096  )
        30           Cu  tau(  30) = (   0.3727640   0.2269500   0.6033168  )
        31           Zr  tau(  31) = (   0.4909010   0.0266550   0.6572008  )
        32           Zr  tau(  32) = (   0.3344380   0.1538590   0.7804448  )
        33           Zr  tau(  33) = (   0.5010310   0.4176720   0.0284944  )
        34           Al  tau(  34) = (   0.3891260   0.4541170   0.2005552  )
        35           Cu  tau(  35) = (   0.4270120   0.3295000   0.3344976  )
        36           Cu  tau(  36) = (   0.2812900   0.4786180   0.3637768  )
        37           Zr  tau(  37) = (   0.4431220   0.4213950   0.5041024  )
        38           Zr  tau(  38) = (   0.3330890   0.4543610   0.6788824  )
        39           Cu  tau(  39) = (   0.3161030   0.5456970   0.0593888  )
        40           Zr  tau(  40) = (   0.2556010   0.6436620   0.2414616  )
        41           Zr  tau(  41) = (   0.4786970   0.5775920   0.3513704  )
        42           Zr  tau(  42) = (   0.2806530   0.6952180   0.4429504  )
        43           Cu  tau(  43) = (   0.4540980   0.6339770   0.5550328  )
        44           Zr  tau(  44) = (   0.4302580   0.6894230   0.7512424  )
        45           Cu  tau(  45) = (   0.3223560   0.7658970   0.0855000  )
        46           Zr  tau(  46) = (   0.4766140   0.9323300   0.0419928  )
        47           Zr  tau(  47) = (   0.4135570   0.8280610   0.2732608  )
        48           Zr  tau(  48) = (   0.3922520   0.9679630   0.4682680  )
        49           Cu  tau(  49) = (   0.3999990   0.8197080   0.6049544  )
        50           Zr  tau(  50) = (   0.2492660   0.9077680   0.7289456  )
        51           Zr  tau(  51) = (   0.5957130   0.1641180   0.0397384  )
        52           Zr  tau(  52) = (   0.7575530   0.0797000   0.1875104  )
        53           Cu  tau(  53) = (   0.5410490   0.1728210   0.2931128  )
        54           Zr  tau(  54) = (   0.5357240   0.1819230   0.4792904  )
        55           Zr  tau(  55) = (   0.6936450   0.1353580   0.6399872  )
        56           Cu  tau(  56) = (   0.6996980   0.4938770   0.0989000  )
        57           Zr  tau(  57) = (   0.6154380   0.3496160   0.2086936  )
        58           Cu  tau(  58) = (   0.6163860   0.3829110   0.3919664  )
        59           Zr  tau(  59) = (   0.7406390   0.3425790   0.5398696  )
        60           Zr  tau(  60) = (   0.7412480   0.3575700   0.7501248  )
        61           Cu  tau(  61) = (   0.5350970   0.2943340   0.6655208  )
        62           Zr  tau(  62) = (   0.5219300   0.6602630   0.1442224  )
        63           Cu  tau(  63) = (   0.6764360   0.5422660   0.2809416  )
        64           Cu  tau(  64) = (   0.6518880   0.7490820   0.3049568  )
        65           Zr  tau(  65) = (   0.6685970   0.5790940   0.4955640  )
        66           Cu  tau(  66) = (   0.5727900   0.5080700   0.6542480  )
        67           Cu  tau(  67) = (   0.6643170   0.6087910   0.7757024  )
        68           Cu  tau(  68) = (   0.6453030   0.7910700   0.0230872  )
        69           Cu  tau(  69) = (   0.6369180   0.8868360   0.1920088  )
        70           Zr  tau(  70) = (   0.6303260   0.9759980   0.3517992  )
        71           Cu  tau(  71) = (   0.5295050   0.7794890   0.4636048  )
        72           Cu  tau(  72) = (   0.6242650   0.9611470   0.5218384  )
        73           Zr  tau(  73) = (   0.6264570   0.7657160   0.6286480  )
        74           Cu  tau(  74) = (   0.6866730   0.9527310   0.7488040  )
        75           Cu  tau(  75) = (   0.7980740   0.2687160   0.1038768  )
        76           Zr  tau(  76) = (   1.0111800   0.0294580   0.1512856  )
        77           Zr  tau(  77) = (   0.7674370   0.2250570   0.3440784  )
        78           Cu  tau(  78) = (   0.9704410   0.0880180   0.3485264  )
        79           Zr  tau(  79) = (   0.8233740   0.0724900   0.4814408  )
        80           Cu  tau(  80) = (   0.8934150   0.2197080   0.6401104  )
        81           Zr  tau(  81) = (   0.8687050   0.0849730   0.7819944  )
        82           Zr  tau(  82) = (   0.9982840   0.2941060   0.0280024  )
        83           Zr  tau(  83) = (   0.8616490   0.4609810   0.2016104  )
        84           Cu  tau(  84) = (   0.8132930   0.4350980   0.3833248  )
        85           Zr  tau(  85) = (   0.9981660   0.2752820   0.4644824  )
        86           Cu  tau(  86) = (   0.9756890   0.4038440   0.6540400  )
        87           Zr  tau(  87) = (   0.9133460   0.5484550   0.0199032  )
        88           Zr  tau(  88) = (   0.7753420   0.6984470   0.1532832  )
        89           Al  tau(  89) = (   1.0048900   0.6548750   0.1981840  )
        90           Zr  tau(  90) = (   0.8636860   0.6537190   0.3691456  )
        91           Cu  tau(  91) = (   0.9239290   0.4981350   0.5136456  )
        92           Cu  tau(  92) = (   0.8484040   0.7178360   0.5609616  )
        93           Cu  tau(  93) = (   0.7838010   0.5560280   0.6559832  )
        94           Cu  tau(  94) = (   0.9491700   0.8012760   0.1018976  )
        95           Cu  tau(  95) = (   0.7960670   0.9101280   0.0801008  )
        96           Zr  tau(  96) = (   0.8820060   0.8729030   0.2758208  )
        97           Zr  tau(  97) = (   0.9756070   0.8735870   0.4683840  )
        98           Cu  tau(  98) = (   0.7438140   0.8240090   0.4577768  )
        99           Cu  tau(  99) = (   0.8036460   0.9168100   0.6091224  )
       100           Zr  tau( 100) = (   0.8574510   0.7776480   0.7323384  )

   Crystallographic axes

     site n.     atom                  positions (cryst. coord.)
         1           Cu  tau(   1) = (  0.1532540  0.2277590  0.1567850  )
         2           Zr  tau(   2) = (  0.2632450 -0.0190070  0.1788030  )
         3           Cu  tau(   3) = (  0.1770600  0.1315620  0.3373750  )
         4           Cu  tau(   4) = (  0.1041000  0.0611130  0.5913870  )
         5           Zr  tau(   5) = (  0.0179050  0.0327190  0.7957000  )
         6           Cu  tau(   6) = (  0.2603280  0.0656340  0.7428210  )
         7           Cu  tau(   7) = (  0.1177750  0.1023710  0.9862360  )
         8           Cu  tau(   8) = (  0.2607600  0.3549830  0.0459350  )
         9           Zr  tau(   9) = ( -0.0132520  0.2717730  0.3065150  )
        10           Cu  tau(  10) = (  0.2185700  0.3285600  0.3368330  )
        11           Zr  tau(  11) = (  0.1152240  0.4699240  0.1643430  )
        12           Zr  tau(  12) = (  0.0615040  0.4952260  0.4343910  )
        13           Zr  tau(  13) = (  0.1385390  0.2523210  0.8065140  )
        14           Zr  tau(  14) = (  0.1772030  0.4605960  0.6620950  )
        15           Cu  tau(  15) = (  0.1140550  0.4794900  0.9306380  )
        16           Zr  tau(  16) = (  0.1178980  0.6997470  0.0172560  )
        17           Cu  tau(  17) = (  0.0775240  0.7324330  0.4191720  )
        18           Cu  tau(  18) = (  0.0595990  0.6651690  0.6132270  )
        19           Zr  tau(  19) = (  0.2258380  0.6737150  0.7857960  )
        20           Cu  tau(  20) = ( -0.0091150  0.6101890  0.8077750  )
        21           Cu  tau(  21) = (  0.0411810  0.9211880 -0.0202190  )
        22           Cu  tau(  22) = (  0.1181520  0.8230530  0.2237520  )
        23           Zr  tau(  23) = (  0.1762560  0.9250130  0.4308390  )
        24           Cu  tau(  24) = (  0.0470770  0.8041300  0.7956290  )
        25           Cu  tau(  25) = (  0.1929970  0.8760390  0.6704530  )
        26           Zr  tau(  26) = (  0.3771530  0.2235980  0.2105170  )
        27           Cu  tau(  27) = (  0.5030380  0.0370620  0.2382310  )
        28           Cu  tau(  28) = (  0.3667550  0.0675060  0.3843810  )
        29           Zr  tau(  29) = (  0.2658580  0.2188980  0.5456370  )
        30           Cu  tau(  30) = (  0.3727640  0.2269500  0.7541460  )
        31           Zr  tau(  31) = (  0.4909010  0.0266550  0.8215010  )
        32           Zr  tau(  32) = (  0.3344380  0.1538590  0.9755560  )
        33           Zr  tau(  33) = (  0.5010310  0.4176720  0.0356180  )
        34           Al  tau(  34) = (  0.3891260  0.4541170  0.2506940  )
        35           Cu  tau(  35) = (  0.4270120  0.3295000  0.4181220  )
        36           Cu  tau(  36) = (  0.2812900  0.4786180  0.4547210  )
        37           Zr  tau(  37) = (  0.4431220  0.4213950  0.6301280  )
        38           Zr  tau(  38) = (  0.3330890  0.4543610  0.8486030  )
        39           Cu  tau(  39) = (  0.3161030  0.5456970  0.0742360  )
        40           Zr  tau(  40) = (  0.2556010  0.6436620  0.3018270  )
        41           Zr  tau(  41) = (  0.4786970  0.5775920  0.4392130  )
        42           Zr  tau(  42) = (  0.2806530  0.6952180  0.5536880  )
        43           Cu  tau(  43) = (  0.4540980  0.6339770  0.6937910  )
        44           Zr  tau(  44) = (  0.4302580  0.6894230  0.9390530  )
        45           Cu  tau(  45) = (  0.3223560  0.7658970  0.1068750  )
        46           Zr  tau(  46) = (  0.4766140  0.9323300  0.0524910  )
        47           Zr  tau(  47) = (  0.4135570  0.8280610  0.3415760  )
        48           Zr  tau(  48) = (  0.3922520  0.9679630  0.5853350  )
        49           Cu  tau(  49) = (  0.3999990  0.8197080  0.7561930  )
        50           Zr  tau(  50) = (  0.2492660  0.9077680  0.9111820  )
        51           Zr  tau(  51) = (  0.5957130  0.1641180  0.0496730  )
        52           Zr  tau(  52) = (  0.7575530  0.0797000  0.2343880  )
        53           Cu  tau(  53) = (  0.5410490  0.1728210  0.3663910  )
        54           Zr  tau(  54) = (  0.5357240  0.1819230  0.5991130  )
        55           Zr  tau(  55) = (  0.6936450  0.1353580  0.7999840  )
        56           Cu  tau(  56) = (  0.6996980  0.4938770  0.1236250  )
        57           Zr  tau(  57) = (  0.6154380  0.3496160  0.2608670  )
        58           Cu  tau(  58) = (  0.6163860  0.3829110  0.4899580  )
        59           Zr  tau(  59) = (  0.7406390  0.3425790  0.6748370  )
        60           Zr  tau(  60) = (  0.7412480  0.3575700  0.9376560  )
        61           Cu  tau(  61) = (  0.5350970  0.2943340  0.8319010  )
        62           Zr  tau(  62) = (  0.5219300  0.6602630  0.1802780  )
        63           Cu  tau(  63) = (  0.6764360  0.5422660  0.3511770  )
        64           Cu  tau(  64) = (  0.6518880  0.7490820  0.3811960  )
        65           Zr  tau(  65) = (  0.6685970  0.5790940  0.6194550  )
        66           Cu  tau(  66) = (  0.5727900  0.5080700  0.8178100  )
        67           Cu  tau(  67) = (  0.6643170  0.6087910  0.9696280  )
        68           Cu  tau(  68) = (  0.6453030  0.7910700  0.0288590  )
        69           Cu  tau(  69) = (  0.6369180  0.8868360  0.2400110  )
        70           Zr  tau(  70) = (  0.6303260  0.9759980  0.4397490  )
        71           Cu  tau(  71) = (  0.5295050  0.7794890  0.5795060  )
        72           Cu  tau(  72) = (  0.6242650  0.9611470  0.6522980  )
        73           Zr  tau(  73) = (  0.6264570  0.7657160  0.7858100  )
        74           Cu  tau(  74) = (  0.6866730  0.9527310  0.9360050  )
        75           Cu  tau(  75) = (  0.7980740  0.2687160  0.1298460  )
        76           Zr  tau(  76) = (  1.0111800  0.0294580  0.1891070  )
        77           Zr  tau(  77) = (  0.7674370  0.2250570  0.4300980  )
        78           Cu  tau(  78) = (  0.9704410  0.0880180  0.4356580  )
        79           Zr  tau(  79) = (  0.8233740  0.0724900  0.6018010  )
        80           Cu  tau(  80) = (  0.8934150  0.2197080  0.8001380  )
        81           Zr  tau(  81) = (  0.8687050  0.0849730  0.9774930  )
        82           Zr  tau(  82) = (  0.9982840  0.2941060  0.0350030  )
        83           Zr  tau(  83) = (  0.8616490  0.4609810  0.2520130  )
        84           Cu  tau(  84) = (  0.8132930  0.4350980  0.4791560  )
        85           Zr  tau(  85) = (  0.9981660  0.2752820  0.5806030  )
        86           Cu  tau(  86) = (  0.9756890  0.4038440  0.8175500  )
        87           Zr  tau(  87) = (  0.9133460  0.5484550  0.0248790  )
        88           Zr  tau(  88) = (  0.7753420  0.6984470  0.1916040  )
        89           Al  tau(  89) = (  1.0048900  0.6548750  0.2477300  )
        90           Zr  tau(  90) = (  0.8636860  0.6537190  0.4614320  )
        91           Cu  tau(  91) = (  0.9239290  0.4981350  0.6420570  )
        92           Cu  tau(  92) = (  0.8484040  0.7178360  0.7012020  )
        93           Cu  tau(  93) = (  0.7838010  0.5560280  0.8199790  )
        94           Cu  tau(  94) = (  0.9491700  0.8012760  0.1273720  )
        95           Cu  tau(  95) = (  0.7960670  0.9101280  0.1001260  )
        96           Zr  tau(  96) = (  0.8820060  0.8729030  0.3447760  )
        97           Zr  tau(  97) = (  0.9756070  0.8735870  0.5854800  )
        98           Cu  tau(  98) = (  0.7438140  0.8240090  0.5722210  )
        99           Cu  tau(  99) = (  0.8036460  0.9168100  0.7614030  )
       100           Zr  tau( 100) = (  0.8574510  0.7776480  0.9154230  )

     number of k points=     8  Fermi-Dirac smearing, width (Ry)=  0.0080
                       cart. coord. in units 2pi/alat
        k(    1) = (   0.2500000   0.2500000   0.3125000), wk =   0.2500000
        k(    2) = (   0.2500000   0.2500000  -0.3125000), wk =   0.2500000
        k(    3) = (   0.2500000  -0.2500000   0.3125000), wk =   0.2500000
        k(    4) = (   0.2500000  -0.2500000  -0.3125000), wk =   0.2500000
        k(    5) = (  -0.2500000   0.2500000   0.3125000), wk =   0.2500000
        k(    6) = (  -0.2500000   0.2500000  -0.3125000), wk =   0.2500000
        k(    7) = (  -0.2500000  -0.2500000   0.3125000), wk =   0.2500000
        k(    8) = (  -0.2500000  -0.2500000  -0.3125000), wk =   0.2500000

                       cryst. coord.
        k(    1) = (   0.2500000   0.2500000   0.2500000), wk =   0.2500000
        k(    2) = (   0.2500000   0.2500000  -0.2500000), wk =   0.2500000
        k(    3) = (   0.2500000  -0.2500000   0.2500000), wk =   0.2500000
        k(    4) = (   0.2500000  -0.2500000  -0.2500000), wk =   0.2500000
        k(    5) = (  -0.2500000   0.2500000   0.2500000), wk =   0.2500000
        k(    6) = (  -0.2500000   0.2500000  -0.2500000), wk =   0.2500000
        k(    7) = (  -0.2500000  -0.2500000   0.2500000), wk =   0.2500000
        k(    8) = (  -0.2500000  -0.2500000  -0.2500000), wk =   0.2500000

     Dense  grid:  2102909 G-vectors     FFT dimensions: ( 180, 180, 144)

     Smooth grid:   743689 G-vectors     FFT dimensions: ( 125, 125, 100)

     Dynamical RAM for                 wfc:      64.15 MB

     Dynamical RAM for     wfc (w. buffer):      64.15 MB

     Dynamical RAM for           str. fact:       4.01 MB

     Dynamical RAM for           local pot:       0.00 MB

     Dynamical RAM for          nlocal pot:     105.14 MB

     Dynamical RAM for                qrad:      20.58 MB

     Dynamical RAM for          rho,v,vnew:       8.46 MB

     Dynamical RAM for               rhoin:       2.82 MB

     Dynamical RAM for            rho*nmix:      21.39 MB

     Dynamical RAM for           G-vectors:       5.25 MB

     Dynamical RAM for          h,s,v(r/c):      95.98 MB

     Dynamical RAM for          <psi|beta>:      29.50 MB

     Dynamical RAM for                 psi:     256.59 MB

     Dynamical RAM for                hpsi:     256.59 MB

     Dynamical RAM for                spsi:     256.59 MB

     Dynamical RAM for      wfcinit/wfcrot:     163.58 MB

     Dynamical RAM for           addusdens:     314.19 MB

     Dynamical RAM for          addusforce:     648.16 MB

     Estimated static dynamical RAM per process >     244.56 MB

     Estimated max dynamical RAM per process >       1.11 GB

     Estimated total dynamical RAM >     213.71 GB

     Initial potential from superposition of free atoms

     starting charge 1524.87645, renormalised to 1525.00000
     Starting wfc are 1135 randomized atomic wfcs
     Checking if some PAW data can be deallocated... 
       PAW data deallocated on  188 nodes for type:  1
       PAW data deallocated on   99 nodes for type:  2
       PAW data deallocated on   97 nodes for type:  3

     total cpu time spent up to now is       31.6 secs

     Self-consistent Calculation

     iteration #  1     ecut=    70.00 Ry     beta= 0.40
     Davidson diagonalization with overlap
     ethr =  1.00E-02,  avg # of iterations =  4.0

     total cpu time spent up to now is      217.6 secs

     total energy              =  -38832.24490549 Ry
     Harris-Foulkes estimate   =  -39001.12165496 Ry
     estimated scf accuracy    <     274.25436574 Ry

     iteration #  2     ecut=    70.00 Ry     beta= 0.40
     Davidson diagonalization with overlap
     ethr =  1.00E-02,  avg # of iterations =  3.0

     total cpu time spent up to now is      417.0 secs

     total energy              =  -38865.73538434 Ry
     Harris-Foulkes estimate   =  -39178.31746690 Ry
     estimated scf accuracy    <    1553.35951874 Ry

     iteration #  3     ecut=    70.00 Ry     beta= 0.40
     Davidson diagonalization with overlap
     ethr =  1.00E-02,  avg # of iterations =  3.0

     total cpu time spent up to now is      564.6 secs

     total energy              =  -38939.70745283 Ry
     Harris-Foulkes estimate   =  -39074.45305007 Ry
     estimated scf accuracy    <    1091.05548275 Ry

     iteration #  4     ecut=    70.00 Ry     beta= 0.40
     Davidson diagonalization with overlap
     ethr =  1.00E-02,  avg # of iterations =  3.0

     total cpu time spent up to now is      681.9 secs

     total energy              =  -38983.24509013 Ry
     Harris-Foulkes estimate   =  -39010.46058845 Ry
     estimated scf accuracy    <     189.53227596 Ry

     iteration #  5     ecut=    70.00 Ry     beta= 0.40
     Davidson diagonalization with overlap
     ethr =  1.00E-02,  avg # of iterations =  1.0

     total cpu time spent up to now is      761.6 secs

     total energy              =  -38988.54894155 Ry
     Harris-Foulkes estimate   =  -38995.67275933 Ry
     estimated scf accuracy    <      78.59035030 Ry

     iteration #  6     ecut=    70.00 Ry     beta= 0.40
     Davidson diagonalization with overlap
     ethr =  5.15E-03,  avg # of iterations =  1.2

     total cpu time spent up to now is      851.0 secs

     total energy              =  -38988.05885279 Ry
     Harris-Foulkes estimate   =  -38991.80797223 Ry
     estimated scf accuracy    <      56.41776579 Ry

     iteration #  7     ecut=    70.00 Ry     beta= 0.40
     Davidson diagonalization with overlap
     ethr =  3.70E-03,  avg # of iterations =  1.0

     total cpu time spent up to now is      930.2 secs

     total energy              =  -38987.13686689 Ry
     Harris-Foulkes estimate   =  -38989.66207999 Ry
     estimated scf accuracy    <      35.24039735 Ry

     iteration #  8     ecut=    70.00 Ry     beta= 0.40
     Davidson diagonalization with overlap
     ethr =  2.31E-03,  avg # of iterations =  1.0

     total cpu time spent up to now is     1009.4 secs

     total energy              =  -38985.54803533 Ry
     Harris-Foulkes estimate   =  -38988.03667647 Ry
     estimated scf accuracy    <      21.56981375 Ry

     iteration #  9     ecut=    70.00 Ry     beta= 0.40
     Davidson diagonalization with overlap
     ethr =  1.41E-03,  avg # of iterations =  1.0

     total cpu time spent up to now is     1088.6 secs

     total energy              =  -38985.07905187 Ry
     Harris-Foulkes estimate   =  -38986.37614355 Ry
     estimated scf accuracy    <      12.11550483 Ry

     iteration # 10     ecut=    70.00 Ry     beta= 0.40
     Davidson diagonalization with overlap
     ethr =  7.94E-04,  avg # of iterations =  2.0

     total cpu time spent up to now is     1189.3 secs

     total energy              =  -38984.27819433 Ry
     Harris-Foulkes estimate   =  -38985.79409295 Ry
     estimated scf accuracy    <       8.86208667 Ry

     iteration # 11     ecut=    70.00 Ry     beta= 0.40
     Davidson diagonalization with overlap
     ethr =  5.81E-04,  avg # of iterations =  3.8

     total cpu time spent up to now is     1301.3 secs

     total energy              =  -38984.40778005 Ry
     Harris-Foulkes estimate   =  -38986.00947576 Ry
     estimated scf accuracy    <      10.32367001 Ry

     iteration # 12     ecut=    70.00 Ry     beta= 0.40
     Davidson diagonalization with overlap
     ethr =  5.81E-04,  avg # of iterations =  1.0

     total cpu time spent up to now is     1380.4 secs

     total energy              =  -38985.07469605 Ry
     Harris-Foulkes estimate   =  -38985.45302125 Ry
     estimated scf accuracy    <       2.33473436 Ry

     iteration # 13     ecut=    70.00 Ry     beta= 0.40
     Davidson diagonalization with overlap
     ethr =  1.53E-04,  avg # of iterations =  3.9

     total cpu time spent up to now is     1508.0 secs

     total energy              =  -38985.17341939 Ry
     Harris-Foulkes estimate   =  -38985.39888492 Ry
     estimated scf accuracy    <       3.03712480 Ry

     iteration # 14     ecut=    70.00 Ry     beta= 0.40
     Davidson diagonalization with overlap
     ethr =  1.53E-04,  avg # of iterations =  1.0

     total cpu time spent up to now is     1587.1 secs

     total energy              =  -38985.26858856 Ry
     Harris-Foulkes estimate   =  -38985.30631729 Ry
     estimated scf accuracy    <       0.29005049 Ry

     iteration # 15     ecut=    70.00 Ry     beta= 0.40
     Davidson diagonalization with overlap
     ethr =  1.90E-05,  avg # of iterations =  7.2

     total cpu time spent up to now is     1775.4 secs

     total energy              =  -38985.27353127 Ry
     Harris-Foulkes estimate   =  -38985.30027106 Ry
     estimated scf accuracy    <       0.32021173 Ry

     iteration # 16     ecut=    70.00 Ry     beta= 0.40
     Davidson diagonalization with overlap
     ethr =  1.90E-05,  avg # of iterations =  2.8

     total cpu time spent up to now is     1876.0 secs

     total energy              =  -38985.27450975 Ry
     Harris-Foulkes estimate   =  -38985.29949467 Ry
     estimated scf accuracy    <       0.30346982 Ry

     iteration # 17     ecut=    70.00 Ry     beta= 0.40
     Davidson diagonalization with overlap
     ethr =  1.90E-05,  avg # of iterations =  1.0

     total cpu time spent up to now is     1955.7 secs

     total energy              =  -38985.27877724 Ry
     Harris-Foulkes estimate   =  -38985.29514563 Ry
     estimated scf accuracy    <       0.18824438 Ry

     iteration # 18     ecut=    70.00 Ry     beta= 0.40
     Davidson diagonalization with overlap
     ethr =  1.23E-05,  avg # of iterations =  1.1

     total cpu time spent up to now is     2043.3 secs

     total energy              =  -38985.27912173 Ry
     Harris-Foulkes estimate   =  -38985.29468021 Ry
     estimated scf accuracy    <       0.20060940 Ry

     iteration # 19     ecut=    70.00 Ry     beta= 0.40
     Davidson diagonalization with overlap
     ethr =  1.23E-05,  avg # of iterations =  1.0

     total cpu time spent up to now is     2122.6 secs

     total energy              =  -38985.28572661 Ry
     Harris-Foulkes estimate   =  -38985.28927962 Ry
     estimated scf accuracy    <       0.03369622 Ry

     iteration # 20     ecut=    70.00 Ry     beta= 0.40
     Davidson diagonalization with overlap
     ethr =  2.21E-06,  avg # of iterations =  5.2

     total cpu time spent up to now is     2265.1 secs

     total energy              =  -38985.28297066 Ry
     Harris-Foulkes estimate   =  -38985.29251635 Ry
     estimated scf accuracy    <       0.15317113 Ry

     iteration # 21     ecut=    70.00 Ry     beta= 0.40
     Davidson diagonalization with overlap
     ethr =  2.21E-06,  avg # of iterations =  4.0

     total cpu time spent up to now is     2378.8 secs

     total energy              =  -38985.28682984 Ry
     Harris-Foulkes estimate   =  -38985.28899728 Ry
     estimated scf accuracy    <       0.01682934 Ry

     iteration # 22     ecut=    70.00 Ry     beta= 0.40
     Davidson diagonalization with overlap
     ethr =  1.10E-06,  avg # of iterations =  1.0

     total cpu time spent up to now is     2457.8 secs

     total energy              =  -38985.28733873 Ry
     Harris-Foulkes estimate   =  -38985.28860617 Ry
     estimated scf accuracy    <       0.01137458 Ry

     iteration # 23     ecut=    70.00 Ry     beta= 0.40
     Davidson diagonalization with overlap
     ethr =  7.46E-07,  avg # of iterations =  1.0

     total cpu time spent up to now is     2536.8 secs

     total energy              =  -38985.28750229 Ry
     Harris-Foulkes estimate   =  -38985.28839001 Ry
     estimated scf accuracy    <       0.00624889 Ry

     iteration # 24     ecut=    70.00 Ry     beta= 0.40
     Davidson diagonalization with overlap
     ethr =  4.10E-07,  avg # of iterations =  1.0

     total cpu time spent up to now is     2616.4 secs

     total energy              =  -38985.28726635 Ry
     Harris-Foulkes estimate   =  -38985.28871041 Ry
     estimated scf accuracy    <       0.01838520 Ry

     iteration # 25     ecut=    70.00 Ry     beta= 0.40
     Davidson diagonalization with overlap
     ethr =  4.10E-07,  avg # of iterations =  1.0

     total cpu time spent up to now is     2695.7 secs

     total energy              =  -38985.28745448 Ry
     Harris-Foulkes estimate   =  -38985.28858548 Ry
     estimated scf accuracy    <       0.01409902 Ry

     iteration # 26     ecut=    70.00 Ry     beta= 0.40
     Davidson diagonalization with overlap
     ethr =  4.10E-07,  avg # of iterations =  1.0

     total cpu time spent up to now is     2774.8 secs

     total energy              =  -38985.28772077 Ry
     Harris-Foulkes estimate   =  -38985.28838941 Ry
     estimated scf accuracy    <       0.00958643 Ry

     iteration # 27     ecut=    70.00 Ry     beta= 0.40
     Davidson diagonalization with overlap
     ethr =  4.10E-07,  avg # of iterations =  1.0

     total cpu time spent up to now is     2853.9 secs

     total energy              =  -38985.28791748 Ry
     Harris-Foulkes estimate   =  -38985.28821357 Ry
     estimated scf accuracy    <       0.00351462 Ry

     iteration # 28     ecut=    70.00 Ry     beta= 0.40
     Davidson diagonalization with overlap
     ethr =  2.30E-07,  avg # of iterations =  1.0

     total cpu time spent up to now is     2933.0 secs

     total energy              =  -38985.28795639 Ry
     Harris-Foulkes estimate   =  -38985.28815358 Ry
     estimated scf accuracy    <       0.00202713 Ry

     iteration # 29     ecut=    70.00 Ry     beta= 0.40
     Davidson diagonalization with overlap
     ethr =  1.33E-07,  avg # of iterations =  1.0

     total cpu time spent up to now is     3012.2 secs

     total energy              =  -38985.28793046 Ry
     Harris-Foulkes estimate   =  -38985.28822675 Ry
     estimated scf accuracy    <       0.00445389 Ry

     iteration # 30     ecut=    70.00 Ry     beta= 0.40
     Davidson diagonalization with overlap
     ethr =  1.33E-07,  avg # of iterations =  1.0

     total cpu time spent up to now is     3091.7 secs

     total energy              =  -38985.28805465 Ry
     Harris-Foulkes estimate   =  -38985.28811577 Ry
     estimated scf accuracy    <       0.00057674 Ry

     iteration # 31     ecut=    70.00 Ry     beta= 0.40
     Davidson diagonalization with overlap
     ethr =  3.78E-08,  avg # of iterations =  1.0

     total cpu time spent up to now is     3170.8 secs

     total energy              =  -38985.28805626 Ry
     Harris-Foulkes estimate   =  -38985.28811736 Ry
     estimated scf accuracy    <       0.00076441 Ry

     iteration # 32     ecut=    70.00 Ry     beta= 0.40
     Davidson diagonalization with overlap
     ethr =  3.78E-08,  avg # of iterations =  1.0

     total cpu time spent up to now is     3250.1 secs

     total energy              =  -38985.28807579 Ry
     Harris-Foulkes estimate   =  -38985.28810455 Ry
     estimated scf accuracy    <       0.00032878 Ry

     iteration # 33     ecut=    70.00 Ry     beta= 0.40
     Davidson diagonalization with overlap
     ethr =  2.16E-08,  avg # of iterations =  1.0

     total cpu time spent up to now is     3329.1 secs

     total energy              =  -38985.28808208 Ry
     Harris-Foulkes estimate   =  -38985.28810045 Ry
     estimated scf accuracy    <       0.00013577 Ry

     iteration # 34     ecut=    70.00 Ry     beta= 0.40
     Davidson diagonalization with overlap
     ethr =  8.90E-09,  avg # of iterations =  1.0

     total cpu time spent up to now is     3408.1 secs

     total energy              =  -38985.28807581 Ry
     Harris-Foulkes estimate   =  -38985.28810916 Ry
     estimated scf accuracy    <       0.00043707 Ry

     iteration # 35     ecut=    70.00 Ry     beta= 0.40
     Davidson diagonalization with overlap
     ethr =  8.90E-09,  avg # of iterations =  1.0

     total cpu time spent up to now is     3487.2 secs

     total energy              =  -38985.28808025 Ry
     Harris-Foulkes estimate   =  -38985.28810517 Ry
     estimated scf accuracy    <       0.00028298 Ry

     iteration # 36     ecut=    70.00 Ry     beta= 0.40
     Davidson diagonalization with overlap
     ethr =  8.90E-09,  avg # of iterations =  1.0

     total cpu time spent up to now is     3566.2 secs

     total energy              =  -38985.28808255 Ry
     Harris-Foulkes estimate   =  -38985.28810485 Ry
     estimated scf accuracy    <       0.00034041 Ry

     iteration # 37     ecut=    70.00 Ry     beta= 0.40
     Davidson diagonalization with overlap
     ethr =  8.90E-09,  avg # of iterations =  1.0

     total cpu time spent up to now is     3645.3 secs

     total energy              =  -38985.28808941 Ry
     Harris-Foulkes estimate   =  -38985.28809915 Ry
     estimated scf accuracy    <       0.00010936 Ry

     iteration # 38     ecut=    70.00 Ry     beta= 0.40
     Davidson diagonalization with overlap
     ethr =  7.17E-09,  avg # of iterations =  1.0

     total cpu time spent up to now is     3724.4 secs

     total energy              =  -38985.28809095 Ry
     Harris-Foulkes estimate   =  -38985.28809792 Ry
     estimated scf accuracy    <       0.00008880 Ry

     iteration # 39     ecut=    70.00 Ry     beta= 0.40
     Davidson diagonalization with overlap
     ethr =  5.82E-09,  avg # of iterations =  1.0

     total cpu time spent up to now is     3803.3 secs

     total energy              =  -38985.28808697 Ry
     Harris-Foulkes estimate   =  -38985.28810280 Ry
     estimated scf accuracy    <       0.00023695 Ry

     iteration # 40     ecut=    70.00 Ry     beta= 0.40
     Davidson diagonalization with overlap
     ethr =  5.82E-09,  avg # of iterations =  1.0

     total cpu time spent up to now is     3882.7 secs

     total energy              =  -38985.28809374 Ry
     Harris-Foulkes estimate   =  -38985.28809706 Ry
     estimated scf accuracy    <       0.00003491 Ry

     iteration # 41     ecut=    70.00 Ry     beta= 0.40
     Davidson diagonalization with overlap
     ethr =  2.29E-09,  avg # of iterations =  1.0

     total cpu time spent up to now is     3961.7 secs

     total energy              =  -38985.28809419 Ry
     Harris-Foulkes estimate   =  -38985.28809664 Ry
     estimated scf accuracy    <       0.00002845 Ry

     iteration # 42     ecut=    70.00 Ry     beta= 0.40
     Davidson diagonalization with overlap
     ethr =  1.87E-09,  avg # of iterations =  1.0

     total cpu time spent up to now is     4040.6 secs

     total energy              =  -38985.28809484 Ry
     Harris-Foulkes estimate   =  -38985.28809648 Ry
     estimated scf accuracy    <       0.00002164 Ry

     iteration # 43     ecut=    70.00 Ry     beta= 0.40
     Davidson diagonalization with overlap
     ethr =  1.42E-09,  avg # of iterations =  1.0

     total cpu time spent up to now is     4119.6 secs

     total energy              =  -38985.28809539 Ry
     Harris-Foulkes estimate   =  -38985.28809621 Ry
     estimated scf accuracy    <       0.00000795 Ry

     iteration # 44     ecut=    70.00 Ry     beta= 0.40
     Davidson diagonalization with overlap
     ethr =  5.21E-10,  avg # of iterations =  1.0

     total cpu time spent up to now is     4198.4 secs

     total energy              =  -38985.28809541 Ry
     Harris-Foulkes estimate   =  -38985.28809639 Ry
     estimated scf accuracy    <       0.00001146 Ry

     iteration # 45     ecut=    70.00 Ry     beta= 0.40
     Davidson diagonalization with overlap
     ethr =  5.21E-10,  avg # of iterations =  1.0

     total cpu time spent up to now is     4277.4 secs

     total energy              =  -38985.28809556 Ry
     Harris-Foulkes estimate   =  -38985.28809632 Ry
     estimated scf accuracy    <       0.00000906 Ry

     iteration # 46     ecut=    70.00 Ry     beta= 0.40
     Davidson diagonalization with overlap
     ethr =  5.21E-10,  avg # of iterations =  1.0

     total cpu time spent up to now is     4356.9 secs

     total energy              =  -38985.28809551 Ry
     Harris-Foulkes estimate   =  -38985.28809640 Ry
     estimated scf accuracy    <       0.00001311 Ry

     iteration # 47     ecut=    70.00 Ry     beta= 0.40
     Davidson diagonalization with overlap
     ethr =  5.21E-10,  avg # of iterations =  1.0

     total cpu time spent up to now is     4436.1 secs

     total energy              =  -38985.28809570 Ry
     Harris-Foulkes estimate   =  -38985.28809627 Ry
     estimated scf accuracy    <       0.00000638 Ry

     iteration # 48     ecut=    70.00 Ry     beta= 0.40
     Davidson diagonalization with overlap
     ethr =  4.19E-10,  avg # of iterations =  1.0

     total cpu time spent up to now is     4515.1 secs

     total energy              =  -38985.28809584 Ry
     Harris-Foulkes estimate   =  -38985.28809625 Ry
     estimated scf accuracy    <       0.00000703 Ry

     iteration # 49     ecut=    70.00 Ry     beta= 0.40
     Davidson diagonalization with overlap
     ethr =  4.19E-10,  avg # of iterations =  1.0

     total cpu time spent up to now is     4593.9 secs

     total energy              =  -38985.28809582 Ry
     Harris-Foulkes estimate   =  -38985.28809630 Ry
     estimated scf accuracy    <       0.00000627 Ry

     iteration # 50     ecut=    70.00 Ry     beta= 0.40
     Davidson diagonalization with overlap
     ethr =  4.11E-10,  avg # of iterations =  1.0

     total cpu time spent up to now is     4672.7 secs

     total energy              =  -38985.28809598 Ry
     Harris-Foulkes estimate   =  -38985.28809620 Ry
     estimated scf accuracy    <       0.00000276 Ry

     iteration # 51     ecut=    70.00 Ry     beta= 0.40
     Davidson diagonalization with overlap
     ethr =  1.81E-10,  avg # of iterations =  1.0

     total cpu time spent up to now is     4752.1 secs

     total energy              =  -38985.28809604 Ry
     Harris-Foulkes estimate   =  -38985.28809615 Ry
     estimated scf accuracy    <       0.00000125 Ry

     iteration # 52     ecut=    70.00 Ry     beta= 0.40
     Davidson diagonalization with overlap
     ethr =  8.19E-11,  avg # of iterations =  1.0

     total cpu time spent up to now is     4830.9 secs

     total energy              =  -38985.28809604 Ry
     Harris-Foulkes estimate   =  -38985.28809618 Ry
     estimated scf accuracy    <       0.00000210 Ry

     iteration # 53     ecut=    70.00 Ry     beta= 0.40
     Davidson diagonalization with overlap
     ethr =  8.19E-11,  avg # of iterations =  1.0

     total cpu time spent up to now is     4909.7 secs

     End of self-consistent calculation

          k = 0.2500 0.2500 0.3125 ( 92913 PWs)   bands (ev):

   -95.3125 -95.1331 -95.0294 -94.9824 -94.9328 -94.8784 -94.8733 -94.8425
   -94.8235 -94.8164 -94.8152 -94.8043 -94.7850 -94.7527 -94.7508 -94.7426
   -94.7206 -94.7194 -94.7159 -94.7071 -94.6978 -94.6951 -94.6944 -94.6821
   -94.6807 -94.6686 -94.6657 -94.6332 -94.6204 -94.6151 -94.5976 -94.5759
   -94.5632 -94.5547 -94.5499 -94.5410 -94.5165 -94.4947 -94.4471 -94.4339
   -94.4322 -94.3814 -94.3798 -94.3594 -94.3580 -94.3490 -94.3029 -94.2979
   -94.2052 -52.9661 -52.6539 -52.5786 -52.5281 -52.5078 -52.5059 -52.4953
   -52.4863 -52.4680 -52.4212 -52.3454 -52.3342 -52.3252 -52.3207 -52.3142
   -52.2901 -52.2791 -52.2715 -52.2676 -52.2670 -52.2552 -52.2501 -52.2251
   -52.2229 -52.2135 -52.2131 -52.2119 -52.2059 -52.2009 -52.1845 -52.1823
   -52.1673 -52.1608 -52.1589 -52.1513 -52.1467 -52.1440 -52.1423 -52.1419
   -52.1413 -52.1375 -52.1289 -52.1191 -52.1115 -52.1094 -52.1007 -52.0997
   -52.0969 -52.0968 -52.0967 -52.0963 -52.0946 -52.0901 -52.0813 -52.0748
   -52.0651 -52.0626 -52.0592 -52.0579 -52.0573 -52.0484 -52.0482 -52.0461
   -52.0385 -52.0370 -52.0359 -52.0145 -52.0079 -52.0076 -52.0050 -52.0041
   -52.0007 -51.9983 -51.9974 -51.9907 -51.9877 -51.9775 -51.9736 -51.9729
   -51.9666 -51.9654 -51.9640 -51.9610 -51.9593 -51.9575 -51.9512 -51.9469
   -51.9455 -51.9380 -51.9315 -51.9310 -51.9281 -51.9247 -51.9225 -51.9190
   -51.9123 -51.9033 -51.8942 -51.8896 -51.8810 -51.8783 -51.8724 -51.8709
   -51.8644 -51.8632 -51.8460 -51.8432 -51.8365 -51.8292 -51.8286 -51.8260
   -51.8247 -51.8216 -51.8165 -51.8052 -51.7956 -51.7949 -51.7880 -51.7756
   -51.7725 -51.7707 -51.7674 -51.7657 -51.7548 -51.7508 -51.7184 -51.7122
   -51.7086 -51.7079 -51.7038 -51.6965 -51.6872 -51.6743 -51.6501 -51.6500
   -51.6493 -51.6468 -51.6364 -51.6363 -51.6236 -51.6224 -51.6071 -51.5886
   -51.5819 -51.5699 -51.5128 -51.4998 -29.4186 -29.3640 -29.3530 -29.2935
   -29.2657 -29.2563 -29.2432 -29.2306 -29.2102 -29.2042 -29.2002 -29.1856
   -29.1737 -29.1614 -29.1525 -29.1350 -29.1282 -29.1115 -29.0820 -29.0666
   -29.0499 -29.0434 -29.0392 -29.0268 -29.0147 -29.0063 -28.9954 -28.9838
   -28.9580 -28.9505 -28.9242 -28.9068 -28.9031 -28.8931 -28.8878 -28.8726
   -28.8549 -28.8214 -28.8164 -28.8111 -28.8084 -28.7681 -28.7314 -28.7067
   -28.6924 -28.6501 -28.6152 -28.5378 -28.4920  -8.9440  -8.4534  -8.4376
    -8.4312  -8.3369  -8.3166  -8.3026  -8.2465  -8.2360  -8.2197  -8.1986
    -8.1575  -8.1267  -8.1116  -8.0769  -8.0508  -8.0177  -8.0032  -7.9583
    -7.9309  -7.9140  -7.8975  -7.8857  -7.8456  -7.8314  -7.8105  -7.8003
    -7.7787  -7.7454  -7.7346  -7.7277  -7.7167  -7.7154  -7.7002  -7.6795
    -7.6714  -7.6574  -7.6471  -7.6353  -7.6184  -7.6090  -7.5964  -7.5769
    -7.5695  -7.5502  -7.5461  -7.5402  -7.5173  -7.5115  -7.5027  -7.4946
    -7.4841  -7.4705  -7.4572  -7.4515  -7.4295  -7.4158  -7.4093  -7.3950
    -7.3822  -7.3738  -7.3529  -7.3384  -7.3245  -7.3184  -7.3055  -7.2992
    -7.2848  -7.2783  -7.2700  -7.2546  -7.2442  -7.2393  -7.2280  -7.2176
    -7.2027  -7.1998  -7.1922  -7.1734  -7.1658  -7.1515  -7.1430  -7.1268
    -7.1160  -7.0940  -7.0914  -7.0806  -7.0712  -7.0657  -7.0470  -7.0396
    -7.0260  -7.0182  -7.0104  -6.9949  -6.9901  -6.9799  -6.9719  -6.9627
    -6.9523  -6.9447  -6.9343  -6.9241  -6.9120  -6.9050  -6.8947  -6.8832
    -6.8729  -6.8632  -6.8508  -6.8394  -6.8315  -6.8146  -6.8010  -6.7922
    -6.7808  -6.7705  -6.7554  -6.7472  -6.7391  -6.7287  -6.6945  -6.6748
    -6.6638  -6.6557  -6.6443  -6.6379  -6.5957  -6.5752  -6.5652  -6.5488
    -6.5229  -6.5186  -6.4601  -6.4488  -6.4286  -6.3690  -6.3149  -6.2966
    -6.2863  -6.2589  -6.2321  -6.2186  -6.1529  -6.1169  -6.1004  -5.5465
    10.6876  11.0514  11.3337  11.5525  11.9036  11.9855  12.1186  12.3444
    12.4345  12.5274  12.6462  12.7869  12.8328  12.9153  12.9458  13.0490
    13.1141  13.1353  13.1844  13.2389  13.2940  13.3483  13.3665  13.3855
    13.4155  13.4544  13.4736  13.5058  13.5252  13.5348  13.5523  13.5671
    13.6036  13.6240  13.6301  13.6528  13.6853  13.6916  13.7118  13.7245
    13.7444  13.7535  13.7766  13.7939  13.7995  13.8225  13.8359  13.8454
    13.8613  13.8685  13.8842  13.8931  13.9084  13.9210  13.9339  13.9560
    13.9655  13.9773  13.9877  13.9921  14.0066  14.0202  14.0309  14.0449
    14.0517  14.0704  14.0764  14.0859  14.0945  14.1084  14.1137  14.1270
    14.1364  14.1501  14.1650  14.1760  14.1827  14.1928  14.1988  14.2057
    14.2193  14.2330  14.2475  14.2547  14.2657  14.2688  14.2785  14.2877
    14.3012  14.3115  14.3210  14.3325  14.3433  14.3470  14.3545  14.3621
    14.3738  14.3826  14.3949  14.4051  14.4131  14.4258  14.4288  14.4408
    14.4515  14.4605  14.4653  14.4757  14.4807  14.4953  14.5081  14.5154
    14.5163  14.5242  14.5341  14.5423  14.5526  14.5636  14.5682  14.5742
    14.5867  14.6005  14.6032  14.6170  14.6277  14.6401  14.6478  14.6516
    14.6612  14.6793  14.6884  14.6920  14.7080  14.7137  14.7231  14.7306
    14.7346  14.7443  14.7528  14.7635  14.7688  14.7831  14.7930  14.8065
    14.8097  14.8201  14.8316  14.8369  14.8449  14.8514  14.8575  14.8672
    14.8741  14.8850  14.8881  14.9017  14.9087  14.9193  14.9283  14.9393
    14.9492  14.9557  14.9627  14.9718  14.9770  14.9825  14.9921  15.0044
    15.0086  15.0231  15.0331  15.0373  15.0418  15.0494  15.0674  15.0783
    15.0819  15.0933  15.0979  15.1139  15.1199  15.1318  15.1378  15.1534
    15.1613  15.1711  15.1844  15.1887  15.2002  15.2123  15.2195  15.2298
    15.2379  15.2492  15.2560  15.2647  15.2807  15.2868  15.2921  15.3025
    15.3155  15.3255  15.3322  15.3379  15.3554  15.3617  15.3713  15.3852
    15.3973  15.4023  15.4119  15.4207  15.4384  15.4502  15.4606  15.4698
    15.4828  15.5025  15.5104  15.5150  15.5249  15.5388  15.5544  15.5608
    15.5788  15.5858  15.5934  15.6203  15.6279  15.6376  15.6522  15.6670
    15.6860  15.7037  15.7136  15.7296  15.7405  15.7540  15.7667  15.7875
    15.7968  15.8098  15.8248  15.8352  15.8515  15.8613  15.8888  15.8988
    15.9190  15.9263  15.9370  15.9575  15.9611  15.9831  15.9895  16.0136
    16.0232  16.0349  16.0524  16.0702  16.1025  16.1097  16.1302  16.1572
    16.1781  16.1939  16.2116  16.2322  16.2442  16.2627  16.2768  16.3077
    16.3267  16.3458  16.3604  16.3783  16.4026  16.4175  16.4595  16.5173
    16.5288  16.5631  16.5977  16.6038  16.6400  16.6831  16.7254  16.7490
    16.7891  16.8356  16.8562  16.8966  16.9187  16.9583  16.9684  16.9857
    17.0287  17.1006  17.1224  17.1313  17.1994  17.2385  17.2536  17.2862
    17.3150  17.3533  17.3868  17.4258  17.4447  17.4865  17.5086  17.5535
    17.5878  17.6133  17.6361  17.6575  17.6973  17.7197  17.7598  17.7939
    17.8256  17.8668  17.8951  17.9300  17.9647  17.9700  18.0050  18.0547
    18.0721  18.0824  18.1170  18.1466  18.1996  18.2281  18.2537  18.2639
    18.2959  18.3077  18.3372  18.3719  18.3801  18.4247  18.4559  18.4751
    18.5097  18.5288  18.5723  18.5863  18.6034  18.6395  18.6536  18.6682
    18.7007  18.7395  18.7737  18.8036  18.8298  18.8438  18.8605  18.8986
    18.9290  18.9614  18.9799  19.0206  19.0348  19.0608  19.0940  19.1090
    19.1267  19.1613  19.1706  19.1953  19.2270  19.2467  19.2586  19.2785
    19.3106  19.3413  19.3755  19.4065  19.4489  19.4847  19.5181  19.5291
    19.5702  19.6007  19.6157  19.6414  19.6744  19.6970  19.7210  19.7559
    19.7877  19.8193  19.8637  19.8905  19.9228  19.9536  19.9808  20.0020
    20.0241  20.0515  20.0616  20.1067  20.1175  20.1605  20.2061  20.2434
    20.2537  20.2704  20.3179  20.3457  20.3954  20.4009  20.4484  20.4831
    20.5197  20.5485  20.5857  20.6086  20.6724  20.7052  20.7236  20.7475
    20.7758  20.8169  20.8487  20.8558  20.9179  20.9436  21.0046  21.0592
    21.1054  21.1184  21.1564  21.1888  21.2664  21.2837  21.3213  21.3351
    21.3796  21.3975  21.4634  21.4802  21.5375  21.5600  21.6044  21.6443
    21.6805  21.7078  21.7264  21.7602  21.8170  21.8406  21.8683  21.9061
    21.9392  21.9610  22.0327  22.0557  22.1038  22.1393  22.1668  22.2138
    22.2306  22.2669  22.2989  22.3336  22.3405  22.3862  22.4327  22.4588
    22.5001  22.5222  22.5608  22.5777  22.6635  22.6972  22.7290  22.7572
    22.7937  22.8283  22.8498  22.8737  22.8882  22.9237  22.9489  23.0221
    23.0658  23.0890  23.1236  23.1420  23.1619  23.2080  23.2466  23.2751
    23.2903  23.3233  23.3620  23.4229  23.4450  23.4643  23.5006  23.5260
    23.5719  23.5993  23.6569  23.7022  23.7076  23.7509  23.7774  23.8256
    23.8498  23.8882  23.9313  23.9537  23.9978  24.0342  24.0515  24.0832
    24.1190  24.1615  24.2067  24.2455  24.2777  24.2941  24.3577  24.3898
    24.4331  24.4526  24.4782  24.5028  24.5483  24.5723  24.6157  24.6706
    24.7113  24.7497  24.7804  24.8095  24.8469  24.9047  24.9403  24.9558
    25.0168  25.0665  25.0871  25.1173  25.2025  25.2470  25.2726  25.3554
    25.4268  25.4771  25.5477  25.5809  25.6743  25.7037  25.7621  25.8178
    25.8710  25.9123  25.9852  26.0145  26.0615  26.1105  26.2071  26.2577
    26.3529  26.4080  26.4527  26.5274  26.5634  26.6302  26.6770  26.7506
    26.7977  26.8900  26.9359  26.9731  27.0448  27.0990  27.1636  27.1785
    27.2544  27.3009  27.3820  27.4411  27.4901  27.5271  27.5956  27.6749
    27.6970  27.7496  27.7963  27.8578  27.8955  27.9453  28.0179  28.0352
    28.0558  28.1664  28.1977  28.3039  28.3463  28.3689  28.4222  28.4826
    28.5095  28.5427  28.5740  28.6583  28.7234  28.7747  28.8183  28.8403
    28.9215  28.9570  28.9999  29.0740  29.1095  29.1478  29.2031  29.2165
    29.2559  29.3223  29.3631  29.4381  29.4429  29.4621  29.5219  29.5706
    29.5911  29.6331  29.6910  29.7464  29.7728  29.8127  29.8513  29.9096
    29.9340  29.9946  30.0208  30.0709  30.1126  30.1563  30.1970  30.2284
    30.3012  30.3138  30.3662  30.4325  30.4648  30.4962  30.5453  30.6004
    30.6490  30.6829  30.7281  30.7486  30.8012  30.8719  30.8968  30.9532
    31.0138  31.0585  31.0782  31.1136  31.1328  31.1981  31.2186  31.2479
    31.2845  31.3359  31.3833  31.4260  31.4373  31.4711  31.4839  31.5538
    31.6096  31.6407  31.6965  31.7325  31.7468  31.8028  31.8217  31.8658
    31.8996  31.9529  32.0148  32.0397  32.0653  32.1068

     occupation numbers 
     1.0000   1.0000   1.0000   1.0000   1.0000   1.0000   1.0000   1.0000
     1.0000   1.0000   1.0000   1.0000   1.0000   1.0000   1.0000   1.0000
     1.0000   1.0000   1.0000   1.0000   1.0000   1.0000   1.0000   1.0000
     1.0000   1.0000   1.0000   1.0000   1.0000   1.0000   1.0000   1.0000
     1.0000   1.0000   1.0000   1.0000   1.0000   1.0000   1.0000   1.0000
     1.0000   1.0000   1.0000   1.0000   1.0000   1.0000   1.0000   1.0000
     1.0000   1.0000   1.0000   1.0000   1.0000   1.0000   1.0000   1.0000
     1.0000   1.0000   1.0000   1.0000   1.0000   1.0000   1.0000   1.0000
     1.0000   1.0000   1.0000   1.0000   1.0000   1.0000   1.0000   1.0000
     1.0000   1.0000   1.0000   1.0000   1.0000   1.0000   1.0000   1.0000
     1.0000   1.0000   1.0000   1.0000   1.0000   1.0000   1.0000   1.0000
     1.0000   1.0000   1.0000   1.0000   1.0000   1.0000   1.0000   1.0000
     1.0000   1.0000   1.0000   1.0000   1.0000   1.0000   1.0000   1.0000
     1.0000   1.0000   1.0000   1.0000   1.0000   1.0000   1.0000   1.0000
     1.0000   1.0000   1.0000   1.0000   1.0000   1.0000   1.0000   1.0000
     1.0000   1.0000   1.0000   1.0000   1.0000   1.0000   1.0000   1.0000
     1.0000   1.0000   1.0000   1.0000   1.0000   1.0000   1.0000   1.0000
     1.0000   1.0000   1.0000   1.0000   1.0000   1.0000   1.0000   1.0000
     1.0000   1.0000   1.0000   1.0000   1.0000   1.0000   1.0000   1.0000
     1.0000   1.0000   1.0000   1.0000   1.0000   1.0000   1.0000   1.0000
     1.0000   1.0000   1.0000   1.0000   1.0000   1.0000   1.0000   1.0000
     1.0000   1.0000   1.0000   1.0000   1.0000   1.0000   1.0000   1.0000
     1.0000   1.0000   1.0000   1.0000   1.0000   1.0000   1.0000   1.0000
     1.0000   1.0000   1.0000   1.0000   1.0000   1.0000   1.0000   1.0000
     1.0000   1.0000   1.0000   1.0000   1.0000   1.0000   1.0000   1.0000
     1.0000   1.0000   1.0000   1.0000   1.0000   1.0000   1.0000   1.0000
     1.0000   1.0000   1.0000   1.0000   1.0000   1.0000   1.0000   1.0000
     1.0000   1.0000   1.0000   1.0000   1.0000   1.0000   1.0000   1.0000
     1.0000   1.0000   1.0000   1.0000   1.0000   1.0000   1.0000   1.0000
     1.0000   1.0000   1.0000   1.0000   1.0000   1.0000   1.0000   1.0000
     1.0000   1.0000   1.0000   1.0000   1.0000   1.0000   1.0000   1.0000
     1.0000   1.0000   1.0000   1.0000   1.0000   1.0000   1.0000   1.0000
     1.0000   1.0000   1.0000   1.0000   1.0000   1.0000   1.0000   1.0000
     1.0000   1.0000   1.0000   1.0000   1.0000   1.0000   1.0000   1.0000
     1.0000   1.0000   1.0000   1.0000   1.0000   1.0000   1.0000   1.0000
     1.0000   1.0000   1.0000   1.0000   1.0000   1.0000   1.0000   1.0000
     1.0000   1.0000   1.0000   1.0000   1.0000   1.0000   1.0000   1.0000
     1.0000   1.0000   1.0000   1.0000   1.0000   1.0000   1.0000   1.0000
     1.0000   1.0000   1.0000   1.0000   1.0000   1.0000   1.0000   1.0000
     1.0000   1.0000   1.0000   1.0000   1.0000   1.0000   1.0000   1.0000
     1.0000   1.0000   1.0000   1.0000   1.0000   1.0000   1.0000   1.0000
     1.0000   1.0000   1.0000   1.0000   1.0000   1.0000   1.0000   1.0000
     1.0000   1.0000   1.0000   1.0000   1.0000   1.0000   1.0000   1.0000
     1.0000   1.0000   1.0000   1.0000   1.0000   1.0000   1.0000   1.0000
     1.0000   1.0000   1.0000   1.0000   1.0000   1.0000   1.0000   1.0000
     1.0000   1.0000   1.0000   1.0000   1.0000   1.0000   1.0000   1.0000
     1.0000   1.0000   1.0000   1.0000   1.0000   1.0000   1.0000   1.0000
     1.0000   1.0000   1.0000   1.0000   1.0000   1.0000   1.0000   1.0000
     1.0000   1.0000   1.0000   1.0000   1.0000   1.0000   1.0000   1.0000
     1.0000   1.0000   1.0000   1.0000   1.0000   1.0000   1.0000   1.0000
     1.0000   1.0000   1.0000   1.0000   1.0000   1.0000   1.0000   1.0000
     1.0000   1.0000   1.0000   1.0000   1.0000   1.0000   1.0000   1.0000
     1.0000   1.0000   1.0000   1.0000   1.0000   1.0000   1.0000   1.0000
     1.0000   1.0000   1.0000   1.0000   1.0000   1.0000   1.0000   1.0000
     1.0000   1.0000   1.0000   1.0000   1.0000   1.0000   1.0000   1.0000
     1.0000   1.0000   1.0000   1.0000   1.0000   1.0000   1.0000   1.0000
     1.0000   1.0000   1.0000   1.0000   1.0000   1.0000   1.0000   1.0000
     1.0000   1.0000   1.0000   1.0000   1.0000   1.0000   1.0000   1.0000
     1.0000   1.0000   1.0000   1.0000   1.0000   1.0000   1.0000   1.0000
     1.0000   1.0000   1.0000   1.0000   1.0000   1.0000   1.0000   1.0000
     1.0000   1.0000   1.0000   1.0000   1.0000   1.0000   1.0000   1.0000
     1.0000   1.0000   1.0000   1.0000   1.0000   1.0000   1.0000   1.0000
     1.0000   1.0000   1.0000   1.0000   1.0000   1.0000   1.0000   1.0000
     1.0000   1.0000   1.0000   1.0000   1.0000   1.0000   1.0000   1.0000
     1.0000   1.0000   1.0000   1.0000   1.0000   1.0000   1.0000   1.0000
     1.0000   1.0000   1.0000   1.0000   1.0000   1.0000   1.0000   1.0000
     1.0000   1.0000   1.0000   1.0000   1.0000   1.0000   1.0000   1.0000
     1.0000   1.0000   1.0000   1.0000   1.0000   1.0000   1.0000   1.0000
     1.0000   1.0000   1.0000   1.0000   1.0000   1.0000   1.0000   1.0000
     1.0000   1.0000   1.0000   1.0000   1.0000   1.0000   1.0000   1.0000
     1.0000   1.0000   1.0000   1.0000   1.0000   1.0000   1.0000   1.0000
     1.0000   1.0000   1.0000   1.0000   1.0000   1.0000   1.0000   1.0000
     1.0000   1.0000   1.0000   1.0000   1.0000   1.0000   1.0000   1.0000
     1.0000   1.0000   1.0000   1.0000   1.0000   1.0000   1.0000   1.0000
     1.0000   1.0000   1.0000   1.0000   1.0000   1.0000   1.0000   1.0000
     1.0000   1.0000   1.0000   1.0000   1.0000   1.0000   1.0000   1.0000
     1.0000   1.0000   1.0000   1.0000   1.0000   1.0000   1.0000   1.0000
     1.0000   1.0000   1.0000   1.0000   1.0000   1.0000   1.0000   1.0000
     1.0000   1.0000   1.0000   1.0000   1.0000   1.0000   1.0000   1.0000
     1.0000   1.0000   1.0000   1.0000   1.0000   1.0000   1.0000   1.0000
     1.0000   1.0000   1.0000   1.0000   1.0000   1.0000   1.0000   1.0000
     1.0000   1.0000   1.0000   1.0000   1.0000   1.0000   1.0000   1.0000
     1.0000   1.0000   1.0000   1.0000   1.0000   1.0000   1.0000   1.0000
     1.0000   1.0000   1.0000   1.0000   1.0000   1.0000   1.0000   1.0000
     1.0000   1.0000   1.0000   1.0000   1.0000   1.0000   1.0000   1.0000
     1.0000   1.0000   1.0000   1.0000   1.0000   1.0000   1.0000   1.0000
     1.0000   1.0000   1.0000   1.0000   1.0000   1.0000   1.0000   1.0000
     1.0000   1.0000   1.0000   1.0000   1.0000   1.0000   1.0000   1.0000
     1.0000   1.0000   1.0000   1.0000   1.0000   1.0000   1.0000   1.0000
     1.0000   1.0000   1.0000   1.0000   1.0000   1.0000   1.0000   1.0000
     1.0000   1.0000   0.9999   0.9999   0.9999   0.9998   0.9998   0.9998
     0.9997   0.9997   0.9996   0.9994   0.9994   0.9991   0.9988   0.9985
     0.9980   0.9976   0.9964   0.9959   0.9952   0.9934   0.9925   0.9914
     0.9885   0.9836   0.9777   0.9708   0.9632   0.9583   0.9518   0.9330
     0.9132   0.8865   0.8683   0.8193   0.7992   0.7581   0.6980   0.6681
     0.6312   0.5546   0.5333   0.4766   0.4051   0.3624   0.3375   0.2978
     0.2400   0.1924   0.1482   0.1158   0.0814   0.0600   0.0448   0.0407
     0.0283   0.0215   0.0188   0.0149   0.0110   0.0090   0.0072   0.0053
     0.0039   0.0029   0.0020   0.0015   0.0011   0.0009   0.0007   0.0006
     0.0004   0.0003   0.0003   0.0002   0.0002   0.0001   0.0001   0.0001
     0.0001   0.0000   0.0000   0.0000   0.0000   0.0000   0.0000   0.0000
     0.0000   0.0000   0.0000   0.0000   0.0000   0.0000   0.0000   0.0000
     0.0000   0.0000   0.0000   0.0000   0.0000   0.0000   0.0000   0.0000
     0.0000   0.0000   0.0000   0.0000   0.0000   0.0000   0.0000   0.0000
     0.0000   0.0000   0.0000   0.0000   0.0000   0.0000   0.0000   0.0000
     0.0000   0.0000   0.0000   0.0000   0.0000   0.0000   0.0000   0.0000
     0.0000   0.0000   0.0000   0.0000   0.0000   0.0000   0.0000   0.0000
     0.0000   0.0000   0.0000   0.0000   0.0000   0.0000   0.0000   0.0000
     0.0000   0.0000   0.0000   0.0000   0.0000   0.0000   0.0000   0.0000
     0.0000   0.0000   0.0000   0.0000   0.0000   0.0000   0.0000   0.0000
     0.0000   0.0000   0.0000   0.0000   0.0000   0.0000   0.0000   0.0000
     0.0000   0.0000   0.0000   0.0000   0.0000   0.0000   0.0000   0.0000
     0.0000   0.0000   0.0000   0.0000   0.0000   0.0000   0.0000   0.0000
     0.0000   0.0000   0.0000   0.0000   0.0000   0.0000   0.0000   0.0000
     0.0000   0.0000   0.0000   0.0000   0.0000   0.0000   0.0000   0.0000
     0.0000   0.0000   0.0000   0.0000   0.0000   0.0000   0.0000   0.0000
     0.0000   0.0000   0.0000   0.0000   0.0000   0.0000   0.0000   0.0000
     0.0000   0.0000   0.0000   0.0000   0.0000   0.0000   0.0000   0.0000
     0.0000   0.0000   0.0000   0.0000   0.0000   0.0000   0.0000   0.0000
     0.0000   0.0000   0.0000   0.0000   0.0000   0.0000   0.0000   0.0000
     0.0000   0.0000   0.0000   0.0000   0.0000   0.0000   0.0000   0.0000
     0.0000   0.0000   0.0000   0.0000   0.0000   0.0000   0.0000   0.0000
     0.0000   0.0000   0.0000   0.0000   0.0000   0.0000   0.0000   0.0000
     0.0000   0.0000   0.0000   0.0000   0.0000   0.0000   0.0000   0.0000
     0.0000   0.0000   0.0000   0.0000   0.0000   0.0000   0.0000   0.0000
     0.0000   0.0000   0.0000   0.0000   0.0000   0.0000   0.0000   0.0000
     0.0000   0.0000   0.0000   0.0000   0.0000   0.0000   0.0000   0.0000
     0.0000   0.0000   0.0000   0.0000   0.0000   0.0000   0.0000   0.0000
     0.0000   0.0000   0.0000   0.0000   0.0000   0.0000   0.0000   0.0000
     0.0000   0.0000   0.0000   0.0000   0.0000   0.0000   0.0000   0.0000
     0.0000   0.0000   0.0000   0.0000   0.0000   0.0000   0.0000   0.0000
     0.0000   0.0000   0.0000   0.0000   0.0000   0.0000   0.0000   0.0000
     0.0000   0.0000   0.0000   0.0000   0.0000   0.0000   0.0000   0.0000
     0.0000   0.0000   0.0000   0.0000   0.0000   0.0000   0.0000   0.0000
     0.0000   0.0000   0.0000   0.0000   0.0000   0.0000   0.0000   0.0000
     0.0000   0.0000   0.0000   0.0000   0.0000   0.0000

          k = 0.2500 0.2500-0.3125 ( 92913 PWs)   bands (ev):

   -95.3125 -95.1331 -95.0294 -94.9824 -94.9328 -94.8784 -94.8733 -94.8425
   -94.8235 -94.8164 -94.8152 -94.8043 -94.7850 -94.7527 -94.7508 -94.7426
   -94.7206 -94.7194 -94.7159 -94.7071 -94.6978 -94.6951 -94.6944 -94.6821
   -94.6807 -94.6686 -94.6657 -94.6332 -94.6204 -94.6151 -94.5976 -94.5759
   -94.5632 -94.5547 -94.5499 -94.5410 -94.5165 -94.4947 -94.4471 -94.4339
   -94.4322 -94.3814 -94.3798 -94.3594 -94.3580 -94.3490 -94.3029 -94.2979
   -94.2052 -52.9661 -52.6539 -52.5786 -52.5281 -52.5078 -52.5059 -52.4953
   -52.4863 -52.4680 -52.4212 -52.3454 -52.3342 -52.3252 -52.3207 -52.3142
   -52.2901 -52.2791 -52.2715 -52.2676 -52.2670 -52.2552 -52.2501 -52.2251
   -52.2229 -52.2135 -52.2131 -52.2118 -52.2059 -52.2009 -52.1845 -52.1823
   -52.1673 -52.1608 -52.1589 -52.1513 -52.1467 -52.1440 -52.1423 -52.1419
   -52.1412 -52.1375 -52.1289 -52.1191 -52.1115 -52.1094 -52.1007 -52.0997
   -52.0969 -52.0968 -52.0967 -52.0963 -52.0946 -52.0901 -52.0813 -52.0748
   -52.0651 -52.0626 -52.0592 -52.0579 -52.0573 -52.0484 -52.0482 -52.0461
   -52.0385 -52.0370 -52.0359 -52.0145 -52.0079 -52.0076 -52.0050 -52.0041
   -52.0007 -51.9983 -51.9974 -51.9907 -51.9877 -51.9776 -51.9736 -51.9729
   -51.9666 -51.9654 -51.9640 -51.9610 -51.9593 -51.9575 -51.9512 -51.9469
   -51.9455 -51.9380 -51.9315 -51.9311 -51.9281 -51.9247 -51.9224 -51.9190
   -51.9123 -51.9033 -51.8942 -51.8896 -51.8810 -51.8783 -51.8724 -51.8709
   -51.8644 -51.8632 -51.8460 -51.8432 -51.8365 -51.8292 -51.8286 -51.8260
   -51.8247 -51.8216 -51.8165 -51.8052 -51.7956 -51.7949 -51.7880 -51.7756
   -51.7725 -51.7707 -51.7675 -51.7657 -51.7548 -51.7508 -51.7184 -51.7122
   -51.7086 -51.7080 -51.7038 -51.6965 -51.6872 -51.6743 -51.6501 -51.6500
   -51.6493 -51.6468 -51.6364 -51.6363 -51.6236 -51.6224 -51.6071 -51.5887
   -51.5819 -51.5699 -51.5128 -51.4998 -29.4186 -29.3640 -29.3530 -29.2931
   -29.2675 -29.2554 -29.2448 -29.2246 -29.2150 -29.2060 -29.1964 -29.1860
   -29.1747 -29.1597 -29.1525 -29.1375 -29.1275 -29.1112 -29.0817 -29.0672
   -29.0505 -29.0421 -29.0394 -29.0265 -29.0148 -29.0076 -28.9957 -28.9805
   -28.9600 -28.9507 -28.9238 -28.9068 -28.9028 -28.8951 -28.8841 -28.8764
   -28.8536 -28.8197 -28.8159 -28.8130 -28.8086 -28.7674 -28.7333 -28.7034
   -28.6943 -28.6501 -28.6152 -28.5378 -28.4920  -8.9440  -8.4538  -8.4374
    -8.4319  -8.3317  -8.3170  -8.3050  -8.2465  -8.2396  -8.2241  -8.2008
    -8.1520  -8.1254  -8.1044  -8.0794  -8.0497  -8.0269  -8.0008  -7.9632
    -7.9389  -7.9095  -7.8932  -7.8683  -7.8450  -7.8276  -7.8060  -7.8017
    -7.7725  -7.7475  -7.7388  -7.7267  -7.7191  -7.7061  -7.7011  -7.6902
    -7.6781  -7.6681  -7.6480  -7.6301  -7.6175  -7.6019  -7.5929  -7.5799
    -7.5751  -7.5623  -7.5611  -7.5413  -7.5236  -7.5112  -7.4984  -7.4853
    -7.4751  -7.4683  -7.4571  -7.4471  -7.4329  -7.4201  -7.4120  -7.3900
    -7.3819  -7.3693  -7.3559  -7.3409  -7.3333  -7.3142  -7.3086  -7.2998
    -7.2869  -7.2756  -7.2644  -7.2526  -7.2454  -7.2352  -7.2236  -7.2158
    -7.2038  -7.1937  -7.1886  -7.1772  -7.1718  -7.1479  -7.1391  -7.1232
    -7.1180  -7.1026  -7.0958  -7.0890  -7.0735  -7.0646  -7.0499  -7.0357
    -7.0322  -7.0156  -7.0088  -6.9947  -6.9896  -6.9779  -6.9756  -6.9624
    -6.9530  -6.9338  -6.9278  -6.9174  -6.9096  -6.9071  -6.8902  -6.8839
    -6.8721  -6.8670  -6.8551  -6.8374  -6.8255  -6.8145  -6.8033  -6.7904
    -6.7829  -6.7684  -6.7566  -6.7498  -6.7326  -6.7251  -6.7009  -6.6805
    -6.6710  -6.6515  -6.6443  -6.6277  -6.6075  -6.5840  -6.5612  -6.5457
    -6.5262  -6.5179  -6.4632  -6.4486  -6.4297  -6.3688  -6.3108  -6.2988
    -6.2861  -6.2569  -6.2300  -6.2222  -6.1529  -6.1175  -6.0975  -5.5465
    10.6842  11.0636  11.3223  11.5552  11.8979  12.0021  12.1032  12.3129
    12.4699  12.5869  12.6279  12.7126  12.8369  12.9281  12.9751  13.0397
    13.1066  13.1404  13.1958  13.2429  13.2714  13.3214  13.3797  13.3845
    13.4251  13.4503  13.4697  13.5040  13.5299  13.5435  13.5554  13.5687
    13.6078  13.6236  13.6331  13.6480  13.6601  13.6802  13.6985  13.7247
    13.7389  13.7620  13.7770  13.7914  13.8061  13.8138  13.8380  13.8426
    13.8601  13.8762  13.8862  13.9051  13.9167  13.9296  13.9364  13.9494
    13.9620  13.9763  13.9902  14.0014  14.0132  14.0257  14.0383  14.0508
    14.0585  14.0652  14.0755  14.0948  14.1037  14.1144  14.1204  14.1315
    14.1448  14.1485  14.1592  14.1708  14.1834  14.1925  14.1998  14.2033
    14.2084  14.2239  14.2397  14.2517  14.2643  14.2715  14.2773  14.2900
    14.2965  14.3084  14.3221  14.3318  14.3412  14.3510  14.3561  14.3676
    14.3738  14.3832  14.3922  14.3979  14.4085  14.4209  14.4279  14.4349
    14.4440  14.4581  14.4617  14.4802  14.4899  14.4951  14.5030  14.5164
    14.5229  14.5295  14.5414  14.5544  14.5633  14.5665  14.5748  14.5808
    14.5938  14.6042  14.6147  14.6172  14.6295  14.6369  14.6474  14.6598
    14.6704  14.6798  14.6874  14.6953  14.6997  14.7054  14.7159  14.7190
    14.7313  14.7413  14.7580  14.7704  14.7753  14.7814  14.7925  14.7970
    14.8143  14.8168  14.8236  14.8281  14.8396  14.8478  14.8566  14.8624
    14.8775  14.8887  14.8970  14.9001  14.9125  14.9192  14.9304  14.9367
    14.9442  14.9553  14.9621  14.9705  14.9844  14.9914  14.9981  15.0033
    15.0116  15.0186  15.0275  15.0372  15.0451  15.0521  15.0632  15.0753
    15.0821  15.0857  15.1012  15.1116  15.1155  15.1265  15.1356  15.1408
    15.1494  15.1668  15.1850  15.1897  15.2004  15.2119  15.2188  15.2291
    15.2365  15.2410  15.2484  15.2605  15.2758  15.2850  15.2954  15.3088
    15.3189  15.3296  15.3348  15.3435  15.3552  15.3650  15.3742  15.3837
    15.3975  15.4062  15.4160  15.4246  15.4391  15.4444  15.4657  15.4708
    15.4855  15.5021  15.5087  15.5197  15.5329  15.5400  15.5528  15.5620
    15.5817  15.5878  15.6085  15.6147  15.6186  15.6465  15.6545  15.6676
    15.6804  15.6970  15.7036  15.7257  15.7349  15.7539  15.7587  15.7863
    15.7949  15.8142  15.8212  15.8403  15.8493  15.8676  15.8744  15.8960
    15.9028  15.9175  15.9296  15.9524  15.9638  15.9820  15.9941  16.0109
    16.0257  16.0352  16.0604  16.0744  16.0996  16.1057  16.1278  16.1429
    16.1669  16.1800  16.1965  16.2129  16.2464  16.2681  16.2968  16.3014
    16.3235  16.3457  16.3552  16.3910  16.4144  16.4348  16.4547  16.4667
    16.5251  16.5358  16.5724  16.6110  16.6576  16.7001  16.7282  16.7653
    16.7841  16.8287  16.8561  16.9062  16.9219  16.9587  17.0043  17.0313
    17.0608  17.1175  17.1551  17.1830  17.2038  17.2355  17.2524  17.2892
    17.3262  17.3477  17.4038  17.4472  17.4633  17.4826  17.5144  17.5530
    17.5820  17.6062  17.6476  17.6687  17.6897  17.7026  17.7403  17.7689
    17.8326  17.8580  17.8971  17.9262  17.9493  17.9726  17.9872  18.0231
    18.0464  18.0785  18.1093  18.1448  18.1608  18.1935  18.2162  18.2505
    18.2684  18.2800  18.3195  18.3560  18.3800  18.4197  18.4570  18.4989
    18.5220  18.5472  18.5555  18.5848  18.6050  18.6352  18.6553  18.6962
    18.7310  18.7533  18.7725  18.8109  18.8442  18.8609  18.8903  18.9227
    18.9380  18.9758  18.9838  19.0260  19.0458  19.0607  19.0938  19.1187
    19.1477  19.1799  19.1996  19.2075  19.2316  19.2597  19.2779  19.3034
    19.3272  19.3547  19.3602  19.4125  19.4387  19.4697  19.4978  19.5465
    19.5675  19.5952  19.6196  19.6298  19.6626  19.6789  19.7266  19.7533
    19.7728  19.8034  19.8356  19.8608  19.8918  19.9137  19.9402  19.9716
    19.9966  20.0405  20.0581  20.0942  20.1168  20.1639  20.1861  20.1978
    20.2432  20.2721  20.3516  20.3736  20.4009  20.4182  20.4678  20.4971
    20.5270  20.5858  20.6041  20.6242  20.6623  20.7004  20.7122  20.7518
    20.7976  20.8169  20.8509  20.8889  20.9070  20.9719  20.9901  21.0355
    21.0682  21.0802  21.1452  21.1806  21.2257  21.2492  21.3127  21.3535
    21.3871  21.4082  21.4661  21.4861  21.5212  21.5671  21.6091  21.6489
    21.6867  21.7133  21.7504  21.7818  21.8370  21.8709  21.8942  21.9111
    21.9433  21.9865  22.0205  22.0367  22.1091  22.1209  22.1788  22.2342
    22.2579  22.2854  22.3107  22.3352  22.3718  22.4204  22.4546  22.4965
    22.5067  22.5559  22.5657  22.5908  22.6228  22.6565  22.6984  22.7254
    22.7727  22.8171  22.8429  22.8927  22.9178  22.9570  22.9747  23.0139
    23.0484  23.0659  23.1058  23.1350  23.1804  23.1951  23.2396  23.2821
    23.3059  23.3437  23.3912  23.4143  23.4466  23.4717  23.5244  23.5462
    23.5925  23.6106  23.6439  23.6707  23.6973  23.7391  23.7879  23.8175
    23.8338  23.8785  23.9092  23.9237  23.9789  23.9991  24.0626  24.0917
    24.1150  24.1363  24.1800  24.2153  24.2485  24.2740  24.3037  24.3454
    24.3762  24.4259  24.4760  24.4780  24.5335  24.5577  24.6236  24.6488
    24.6887  24.7220  24.7636  24.8467  24.8571  24.9303  24.9715  24.9954
    25.0232  25.0812  25.1128  25.1591  25.2016  25.2799  25.3049  25.3676
    25.4541  25.4867  25.5329  25.5569  25.5998  25.6415  25.7433  25.8295
    25.8870  25.9196  25.9813  26.0230  26.1430  26.1672  26.2174  26.2852
    26.3418  26.3535  26.4602  26.5119  26.5973  26.6313  26.7106  26.7421
    26.8138  26.9059  26.9665  27.0017  27.0608  27.1358  27.1673  27.2207
    27.2675  27.3309  27.3790  27.4719  27.4997  27.5247  27.5497  27.6365
    27.7085  27.7333  27.7881  27.8422  27.8856  27.9771  28.0035  28.0643
    28.1463  28.1745  28.2155  28.2554  28.2731  28.3115  28.4130  28.4717
    28.5600  28.5955  28.6252  28.6797  28.7263  28.7323  28.8069  28.8297
    28.8933  28.9330  28.9539  29.0025  29.0542  29.1120  29.1615  29.1911
    29.2717  29.2798  29.3308  29.3791  29.4442  29.4848  29.5183  29.5530
    29.6181  29.6387  29.6789  29.7334  29.7757  29.8026  29.8478  29.9208
    29.9665  30.0236  30.0411  30.0912  30.1013  30.1560  30.2058  30.2687
    30.2979  30.3409  30.3776  30.4560  30.4975  30.5081  30.5764  30.6172
    30.6491  30.7203  30.7537  30.7712  30.8027  30.8330  30.8816  30.9384
    30.9852  31.0216  31.0473  31.1063  31.1265  31.1888  31.2201  31.2666
    31.2942  31.3319  31.3602  31.3940  31.4535  31.4975  31.5215  31.5602
    31.5951  31.6258  31.6964  31.7232  31.7685  31.7951  31.8312  31.8730
    31.9075  31.9449  31.9960  32.0190  32.0566  32.0980

     occupation numbers 
     1.0000   1.0000   1.0000   1.0000   1.0000   1.0000   1.0000   1.0000
     1.0000   1.0000   1.0000   1.0000   1.0000   1.0000   1.0000   1.0000
     1.0000   1.0000   1.0000   1.0000   1.0000   1.0000   1.0000   1.0000
     1.0000   1.0000   1.0000   1.0000   1.0000   1.0000   1.0000   1.0000
     1.0000   1.0000   1.0000   1.0000   1.0000   1.0000   1.0000   1.0000
     1.0000   1.0000   1.0000   1.0000   1.0000   1.0000   1.0000   1.0000
     1.0000   1.0000   1.0000   1.0000   1.0000   1.0000   1.0000   1.0000
     1.0000   1.0000   1.0000   1.0000   1.0000   1.0000   1.0000   1.0000
     1.0000   1.0000   1.0000   1.0000   1.0000   1.0000   1.0000   1.0000
     1.0000   1.0000   1.0000   1.0000   1.0000   1.0000   1.0000   1.0000
     1.0000   1.0000   1.0000   1.0000   1.0000   1.0000   1.0000   1.0000
     1.0000   1.0000   1.0000   1.0000   1.0000   1.0000   1.0000   1.0000
     1.0000   1.0000   1.0000   1.0000   1.0000   1.0000   1.0000   1.0000
     1.0000   1.0000   1.0000   1.0000   1.0000   1.0000   1.0000   1.0000
     1.0000   1.0000   1.0000   1.0000   1.0000   1.0000   1.0000   1.0000
     1.0000   1.0000   1.0000   1.0000   1.0000   1.0000   1.0000   1.0000
     1.0000   1.0000   1.0000   1.0000   1.0000   1.0000   1.0000   1.0000
     1.0000   1.0000   1.0000   1.0000   1.0000   1.0000   1.0000   1.0000
     1.0000   1.0000   1.0000   1.0000   1.0000   1.0000   1.0000   1.0000
     1.0000   1.0000   1.0000   1.0000   1.0000   1.0000   1.0000   1.0000
     1.0000   1.0000   1.0000   1.0000   1.0000   1.0000   1.0000   1.0000
     1.0000   1.0000   1.0000   1.0000   1.0000   1.0000   1.0000   1.0000
     1.0000   1.0000   1.0000   1.0000   1.0000   1.0000   1.0000   1.0000
     1.0000   1.0000   1.0000   1.0000   1.0000   1.0000   1.0000   1.0000
     1.0000   1.0000   1.0000   1.0000   1.0000   1.0000   1.0000   1.0000
     1.0000   1.0000   1.0000   1.0000   1.0000   1.0000   1.0000   1.0000
     1.0000   1.0000   1.0000   1.0000   1.0000   1.0000   1.0000   1.0000
     1.0000   1.0000   1.0000   1.0000   1.0000   1.0000   1.0000   1.0000
     1.0000   1.0000   1.0000   1.0000   1.0000   1.0000   1.0000   1.0000
     1.0000   1.0000   1.0000   1.0000   1.0000   1.0000   1.0000   1.0000
     1.0000   1.0000   1.0000   1.0000   1.0000   1.0000   1.0000   1.0000
     1.0000   1.0000   1.0000   1.0000   1.0000   1.0000   1.0000   1.0000
     1.0000   1.0000   1.0000   1.0000   1.0000   1.0000   1.0000   1.0000
     1.0000   1.0000   1.0000   1.0000   1.0000   1.0000   1.0000   1.0000
     1.0000   1.0000   1.0000   1.0000   1.0000   1.0000   1.0000   1.0000
     1.0000   1.0000   1.0000   1.0000   1.0000   1.0000   1.0000   1.0000
     1.0000   1.0000   1.0000   1.0000   1.0000   1.0000   1.0000   1.0000
     1.0000   1.0000   1.0000   1.0000   1.0000   1.0000   1.0000   1.0000
     1.0000   1.0000   1.0000   1.0000   1.0000   1.0000   1.0000   1.0000
     1.0000   1.0000   1.0000   1.0000   1.0000   1.0000   1.0000   1.0000
     1.0000   1.0000   1.0000   1.0000   1.0000   1.0000   1.0000   1.0000
     1.0000   1.0000   1.0000   1.0000   1.0000   1.0000   1.0000   1.0000
     1.0000   1.0000   1.0000   1.0000   1.0000   1.0000   1.0000   1.0000
     1.0000   1.0000   1.0000   1.0000   1.0000   1.0000   1.0000   1.0000
     1.0000   1.0000   1.0000   1.0000   1.0000   1.0000   1.0000   1.0000
     1.0000   1.0000   1.0000   1.0000   1.0000   1.0000   1.0000   1.0000
     1.0000   1.0000   1.0000   1.0000   1.0000   1.0000   1.0000   1.0000
     1.0000   1.0000   1.0000   1.0000   1.0000   1.0000   1.0000   1.0000
     1.0000   1.0000   1.0000   1.0000   1.0000   1.0000   1.0000   1.0000
     1.0000   1.0000   1.0000   1.0000   1.0000   1.0000   1.0000   1.0000
     1.0000   1.0000   1.0000   1.0000   1.0000   1.0000   1.0000   1.0000
     1.0000   1.0000   1.0000   1.0000   1.0000   1.0000   1.0000   1.0000
     1.0000   1.0000   1.0000   1.0000   1.0000   1.0000   1.0000   1.0000
     1.0000   1.0000   1.0000   1.0000   1.0000   1.0000   1.0000   1.0000
     1.0000   1.0000   1.0000   1.0000   1.0000   1.0000   1.0000   1.0000
     1.0000   1.0000   1.0000   1.0000   1.0000   1.0000   1.0000   1.0000
     1.0000   1.0000   1.0000   1.0000   1.0000   1.0000   1.0000   1.0000
     1.0000   1.0000   1.0000   1.0000   1.0000   1.0000   1.0000   1.0000
     1.0000   1.0000   1.0000   1.0000   1.0000   1.0000   1.0000   1.0000
     1.0000   1.0000   1.0000   1.0000   1.0000   1.0000   1.0000   1.0000
     1.0000   1.0000   1.0000   1.0000   1.0000   1.0000   1.0000   1.0000
     1.0000   1.0000   1.0000   1.0000   1.0000   1.0000   1.0000   1.0000
     1.0000   1.0000   1.0000   1.0000   1.0000   1.0000   1.0000   1.0000
     1.0000   1.0000   1.0000   1.0000   1.0000   1.0000   1.0000   1.0000
     1.0000   1.0000   1.0000   1.0000   1.0000   1.0000   1.0000   1.0000
     1.0000   1.0000   1.0000   1.0000   1.0000   1.0000   1.0000   1.0000
     1.0000   1.0000   1.0000   1.0000   1.0000   1.0000   1.0000   1.0000
     1.0000   1.0000   1.0000   1.0000   1.0000   1.0000   1.0000   1.0000
     1.0000   1.0000   1.0000   1.0000   1.0000   1.0000   1.0000   1.0000
     1.0000   1.0000   1.0000   1.0000   1.0000   1.0000   1.0000   1.0000
     1.0000   1.0000   1.0000   1.0000   1.0000   1.0000   1.0000   1.0000
[...]
     atom   84 type  2   force =    -0.00010818   -0.00014916    0.00042561
     atom   85 type  3   force =     0.00158843    0.00000211    0.00115318
     atom   86 type  2   force =    -0.00000343    0.00010333   -0.00017712
     atom   87 type  3   force =    -0.00056509    0.00054893   -0.00666620
     atom   88 type  3   force =    -0.00318870    0.00232767   -0.00097030
     atom   89 type  1   force =     0.00300941    0.00540019    0.00412578
     atom   90 type  3   force =    -0.00372516   -0.00285579    0.00394079
     atom   91 type  2   force =    -0.00016095    0.00008585    0.00029214
     atom   92 type  2   force =    -0.00000248   -0.00028789   -0.00045370
     atom   93 type  2   force =    -0.00006223    0.00021086    0.00010317
     atom   94 type  2   force =     0.00017458    0.00030682   -0.00023663
     atom   95 type  2   force =    -0.00022970   -0.00020780    0.00012400
     atom   96 type  3   force =    -0.00034644    0.00074026   -0.00375324
     atom   97 type  3   force =     0.00033342   -0.00020664    0.00355533
     atom   98 type  2   force =     0.00020227   -0.00004737    0.00017111
     atom   99 type  2   force =    -0.00038804    0.00027408   -0.00038282
     atom  100 type  3   force =    -0.00214652   -0.00147873    0.00100103
     The Hubbard contrib.    to forces
     atom    1 type  2   force =     0.00000000    0.00000000    0.00000000
     atom    2 type  3   force =     0.00000000    0.00000000    0.00000000
     atom    3 type  2   force =     0.00000000    0.00000000    0.00000000
     atom    4 type  2   force =     0.00000000    0.00000000    0.00000000
     atom    5 type  3   force =     0.00000000    0.00000000    0.00000000
     atom    6 type  2   force =     0.00000000    0.00000000    0.00000000
     atom    7 type  2   force =     0.00000000    0.00000000    0.00000000
     atom    8 type  2   force =     0.00000000    0.00000000    0.00000000
     atom    9 type  3   force =     0.00000000    0.00000000    0.00000000
     atom   10 type  2   force =     0.00000000    0.00000000    0.00000000
     atom   11 type  3   force =     0.00000000    0.00000000    0.00000000
     atom   12 type  3   force =     0.00000000    0.00000000    0.00000000
     atom   13 type  3   force =     0.00000000    0.00000000    0.00000000
     atom   14 type  3   force =     0.00000000    0.00000000    0.00000000
     atom   15 type  2   force =     0.00000000    0.00000000    0.00000000
     atom   16 type  3   force =     0.00000000    0.00000000    0.00000000
     atom   17 type  2   force =     0.00000000    0.00000000    0.00000000
     atom   18 type  2   force =     0.00000000    0.00000000    0.00000000
     atom   19 type  3   force =     0.00000000    0.00000000    0.00000000
     atom   20 type  2   force =     0.00000000    0.00000000    0.00000000
     atom   21 type  2   force =     0.00000000    0.00000000    0.00000000
     atom   22 type  2   force =     0.00000000    0.00000000    0.00000000
     atom   23 type  3   force =     0.00000000    0.00000000    0.00000000
     atom   24 type  2   force =     0.00000000    0.00000000    0.00000000
     atom   25 type  2   force =     0.00000000    0.00000000    0.00000000
     atom   26 type  3   force =     0.00000000    0.00000000    0.00000000
     atom   27 type  2   force =     0.00000000    0.00000000    0.00000000
     atom   28 type  2   force =     0.00000000    0.00000000    0.00000000
     atom   29 type  3   force =     0.00000000    0.00000000    0.00000000
     atom   30 type  2   force =     0.00000000    0.00000000    0.00000000
     atom   31 type  3   force =     0.00000000    0.00000000    0.00000000
     atom   32 type  3   force =     0.00000000    0.00000000    0.00000000
     atom   33 type  3   force =     0.00000000    0.00000000    0.00000000
     atom   34 type  1   force =     0.00000000    0.00000000    0.00000000
     atom   35 type  2   force =     0.00000000    0.00000000    0.00000000
     atom   36 type  2   force =     0.00000000    0.00000000    0.00000000
     atom   37 type  3   force =     0.00000000    0.00000000    0.00000000
     atom   38 type  3   force =     0.00000000    0.00000000    0.00000000
     atom   39 type  2   force =     0.00000000    0.00000000    0.00000000
     atom   40 type  3   force =     0.00000000    0.00000000    0.00000000
     atom   41 type  3   force =     0.00000000    0.00000000    0.00000000
     atom   42 type  3   force =     0.00000000    0.00000000    0.00000000
     atom   43 type  2   force =     0.00000000    0.00000000    0.00000000
     atom   44 type  3   force =     0.00000000    0.00000000    0.00000000
     atom   45 type  2   force =     0.00000000    0.00000000    0.00000000
     atom   46 type  3   force =     0.00000000    0.00000000    0.00000000
     atom   47 type  3   force =     0.00000000    0.00000000    0.00000000
     atom   48 type  3   force =     0.00000000    0.00000000    0.00000000
     atom   49 type  2   force =     0.00000000    0.00000000    0.00000000
     atom   50 type  3   force =     0.00000000    0.00000000    0.00000000
     atom   51 type  3   force =     0.00000000    0.00000000    0.00000000
     atom   52 type  3   force =     0.00000000    0.00000000    0.00000000
     atom   53 type  2   force =     0.00000000    0.00000000    0.00000000
     atom   54 type  3   force =     0.00000000    0.00000000    0.00000000
     atom   55 type  3   force =     0.00000000    0.00000000    0.00000000
     atom   56 type  2   force =     0.00000000    0.00000000    0.00000000
     atom   57 type  3   force =     0.00000000    0.00000000    0.00000000
     atom   58 type  2   force =     0.00000000    0.00000000    0.00000000
     atom   59 type  3   force =     0.00000000    0.00000000    0.00000000
     atom   60 type  3   force =     0.00000000    0.00000000    0.00000000
     atom   61 type  2   force =     0.00000000    0.00000000    0.00000000
     atom   62 type  3   force =     0.00000000    0.00000000    0.00000000
     atom   63 type  2   force =     0.00000000    0.00000000    0.00000000
     atom   64 type  2   force =     0.00000000    0.00000000    0.00000000
     atom   65 type  3   force =     0.00000000    0.00000000    0.00000000
     atom   66 type  2   force =     0.00000000    0.00000000    0.00000000
     atom   67 type  2   force =     0.00000000    0.00000000    0.00000000
     atom   68 type  2   force =     0.00000000    0.00000000    0.00000000
     atom   69 type  2   force =     0.00000000    0.00000000    0.00000000
     atom   70 type  3   force =     0.00000000    0.00000000    0.00000000
     atom   71 type  2   force =     0.00000000    0.00000000    0.00000000
     atom   72 type  2   force =     0.00000000    0.00000000    0.00000000
     atom   73 type  3   force =     0.00000000    0.00000000    0.00000000
     atom   74 type  2   force =     0.00000000    0.00000000    0.00000000
     atom   75 type  2   force =     0.00000000    0.00000000    0.00000000
     atom   76 type  3   force =     0.00000000    0.00000000    0.00000000
     atom   77 type  3   force =     0.00000000    0.00000000    0.00000000
     atom   78 type  2   force =     0.00000000    0.00000000    0.00000000
     atom   79 type  3   force =     0.00000000    0.00000000    0.00000000
     atom   80 type  2   force =     0.00000000    0.00000000    0.00000000
     atom   81 type  3   force =     0.00000000    0.00000000    0.00000000
     atom   82 type  3   force =     0.00000000    0.00000000    0.00000000
     atom   83 type  3   force =     0.00000000    0.00000000    0.00000000
     atom   84 type  2   force =     0.00000000    0.00000000    0.00000000
     atom   85 type  3   force =     0.00000000    0.00000000    0.00000000
     atom   86 type  2   force =     0.00000000    0.00000000    0.00000000
     atom   87 type  3   force =     0.00000000    0.00000000    0.00000000
     atom   88 type  3   force =     0.00000000    0.00000000    0.00000000
     atom   89 type  1   force =     0.00000000    0.00000000    0.00000000
     atom   90 type  3   force =     0.00000000    0.00000000    0.00000000
     atom   91 type  2   force =     0.00000000    0.00000000    0.00000000
     atom   92 type  2   force =     0.00000000    0.00000000    0.00000000
     atom   93 type  2   force =     0.00000000    0.00000000    0.00000000
     atom   94 type  2   force =     0.00000000    0.00000000    0.00000000
     atom   95 type  2   force =     0.00000000    0.00000000    0.00000000
     atom   96 type  3   force =     0.00000000    0.00000000    0.00000000
     atom   97 type  3   force =     0.00000000    0.00000000    0.00000000
     atom   98 type  2   force =     0.00000000    0.00000000    0.00000000
     atom   99 type  2   force =     0.00000000    0.00000000    0.00000000
     atom  100 type  3   force =     0.00000000    0.00000000    0.00000000
     The SCF correction term to forces
     atom    1 type  2   force =     0.00014537   -0.00022827    0.00065860
     atom    2 type  3   force =     0.00004543   -0.00032021    0.00043461
     atom    3 type  2   force =     0.00007081   -0.00033089    0.00063204
     atom    4 type  2   force =    -0.00007582   -0.00038825   -0.00032066
     atom    5 type  3   force =    -0.00030968   -0.00025844   -0.00024325
     atom    6 type  2   force =     0.00043888   -0.00056459   -0.00091196
     atom    7 type  2   force =    -0.00039616   -0.00064501   -0.00000555
     atom    8 type  2   force =     0.00041952    0.00040144    0.00030394
     atom    9 type  3   force =    -0.00020631   -0.00021783    0.00049136
     atom   10 type  2   force =     0.00043474    0.00006526    0.00052521
     atom   11 type  3   force =     0.00028539    0.00032130    0.00030526
     atom   12 type  3   force =    -0.00000600    0.00019101    0.00014347
     atom   13 type  3   force =     0.00000959   -0.00014898   -0.00039592
     atom   14 type  3   force =     0.00028245    0.00033469   -0.00028948
     atom   15 type  2   force =     0.00053421    0.00072704   -0.00022647
     atom   16 type  3   force =     0.00019298    0.00024450   -0.00003062
     atom   17 type  2   force =     0.00014582    0.00029671    0.00014062
     atom   18 type  2   force =     0.00027383    0.00044091   -0.00022647
     atom   19 type  3   force =     0.00032304    0.00023962   -0.00027994
     atom   20 type  2   force =     0.00021724    0.00068403   -0.00055963
     atom   21 type  2   force =    -0.00038478   -0.00032787    0.00000731
     atom   22 type  2   force =    -0.00009328   -0.00013507    0.00034095
     atom   23 type  3   force =     0.00016899   -0.00020227    0.00018674
     atom   24 type  2   force =     0.00016991    0.00006546   -0.00023407
     atom   25 type  2   force =     0.00043263   -0.00040945   -0.00049376
     atom   26 type  3   force =     0.00025520    0.00003684    0.00051500
     atom   27 type  2   force =     0.00044475   -0.00039490    0.00098354
     atom   28 type  2   force =     0.00052970   -0.00041933    0.00086909
     atom   29 type  3   force =     0.00033283   -0.00014367   -0.00015245
     atom   30 type  2   force =     0.00079030   -0.00016512   -0.00098482
     atom   31 type  3   force =     0.00036420   -0.00021208   -0.00063246
     atom   32 type  3   force =     0.00026179   -0.00011456   -0.00013100
     atom   33 type  3   force =    -0.00004204    0.00025595    0.00011164
     atom   34 type  1   force =     0.00006856    0.00008422    0.00011542
     atom   35 type  2   force =     0.00059839    0.00025377    0.00053105
     atom   36 type  2   force =     0.00087279    0.00055660    0.00013012
     atom   37 type  3   force =     0.00039528    0.00028650   -0.00042628
     atom   38 type  3   force =     0.00029216    0.00041189   -0.00033000
     atom   39 type  2   force =     0.00034650    0.00064597    0.00025528
     atom   40 type  3   force =     0.00039592    0.00022357    0.00032802
     atom   41 type  3   force =     0.00021529    0.00027194    0.00023663
     atom   42 type  3   force =     0.00047134    0.00014145   -0.00000857
     atom   43 type  2   force =     0.00022803    0.00037447   -0.00089726
     atom   44 type  3   force =     0.00007008    0.00009444   -0.00024548
     atom   45 type  2   force =     0.00028025   -0.00034735    0.00031261
     atom   46 type  3   force =     0.00031603   -0.00032076    0.00004699
     atom   47 type  3   force =     0.00028579   -0.00024538    0.00051836
     atom   48 type  3   force =     0.00035635   -0.00027981   -0.00018185
     atom   49 type  2   force =     0.00036260   -0.00033024   -0.00089181
     atom   50 type  3   force =     0.00006253   -0.00041045   -0.00031764
     atom   51 type  3   force =     0.00017216   -0.00028294   -0.00001975
     atom   52 type  3   force =    -0.00009312   -0.00030453    0.00035942
     atom   53 type  2   force =     0.00031349   -0.00016546    0.00097063
     atom   54 type  3   force =     0.00027778   -0.00014191   -0.00016076
     atom   55 type  3   force =    -0.00006768   -0.00024389   -0.00054021
     atom   56 type  2   force =    -0.00063542    0.00057930    0.00087003
     atom   57 type  3   force =    -0.00010292    0.00007421    0.00070534
     atom   58 type  2   force =    -0.00004030    0.00021347    0.00036363
     atom   59 type  3   force =    -0.00032953   -0.00015529   -0.00059353
     atom   60 type  3   force =    -0.00027973   -0.00021395   -0.00044221
     atom   61 type  2   force =     0.00031747   -0.00023200   -0.00111842
     atom   62 type  3   force =    -0.00002097    0.00016536    0.00053593
     atom   63 type  2   force =    -0.00065456    0.00046173    0.00104355
     atom   64 type  2   force =    -0.00043047   -0.00003149    0.00046165
     atom   65 type  3   force =    -0.00037642    0.00012756   -0.00045535
     atom   66 type  2   force =    -0.00018908    0.00051105   -0.00116817
     atom   67 type  2   force =    -0.00058359    0.00070968   -0.00017627
     atom   68 type  2   force =    -0.00010247    0.00017516    0.00014471
     atom   69 type  2   force =     0.00005902   -0.00028832    0.00073642
     atom   70 type  3   force =    -0.00007040   -0.00015035    0.00026321
     atom   71 type  2   force =    -0.00010130   -0.00017985   -0.00035776
     atom   72 type  2   force =    -0.00014644   -0.00001406   -0.00046369
     atom   73 type  3   force =    -0.00021521    0.00007711   -0.00047714
     atom   74 type  2   force =     0.00007102   -0.00006615   -0.00035361
     atom   75 type  2   force =    -0.00039076   -0.00068230    0.00067811
     atom   76 type  3   force =    -0.00028895   -0.00031689    0.00023273
     atom   77 type  3   force =    -0.00029176   -0.00011387    0.00041659
     atom   78 type  2   force =    -0.00048133   -0.00029188    0.00024388
     atom   79 type  3   force =    -0.00039989   -0.00003145   -0.00009867
     atom   80 type  2   force =    -0.00079267   -0.00066980   -0.00086012
     atom   81 type  3   force =    -0.00030073   -0.00038687   -0.00012791
     atom   82 type  3   force =    -0.00012401   -0.00026942    0.00007719
     atom   83 type  3   force =    -0.00032609    0.00014681    0.00067328
     atom   84 type  2   force =    -0.00087396    0.00000936    0.00040794
     atom   85 type  3   force =    -0.00036151   -0.00016620   -0.00020755
     atom   86 type  2   force =    -0.00029718    0.00000561   -0.00093808
     atom   87 type  3   force =    -0.00004125    0.00044745    0.00007907
     atom   88 type  3   force =    -0.00029996    0.00037204    0.00046273
     atom   89 type  1   force =    -0.00000662    0.00009364    0.00006590
     atom   90 type  3   force =    -0.00043439    0.00018525    0.00005351
     atom   91 type  2   force =    -0.00062861    0.00011217   -0.00070964
     atom   92 type  2   force =    -0.00056976    0.00031971   -0.00063700
     atom   93 type  2   force =    -0.00071654    0.00043192   -0.00115380
     atom   94 type  2   force =    -0.00018980    0.00033730    0.00033758
     atom   95 type  2   force =    -0.00018472   -0.00001005    0.00027083
     atom   96 type  3   force =    -0.00026570   -0.00001197    0.00013476
     atom   97 type  3   force =    -0.00015890    0.00001915   -0.00014705
     atom   98 type  2   force =    -0.00061561    0.00003186   -0.00033757
     atom   99 type  2   force =    -0.00048707    0.00020987   -0.00040584
     atom  100 type  3   force =    -0.00016546    0.00033520   -0.00007358

     Total force =     0.760720     Total SCF correction =     0.006982

     Writing output data file Zr49Cu49Al2.save
 
     init_run     :     29.61s CPU     30.39s WALL (       1 calls)
     electrons    :   4795.87s CPU   4878.39s WALL (       1 calls)
     forces       :     20.17s CPU     20.73s WALL (       1 calls)

     Called by init_run:
     wfcinit      :     23.85s CPU     24.15s WALL (       1 calls)
     wfcinit:atom :      0.05s CPU      0.08s WALL (       1 calls)
     wfcinit:wfcr :     23.59s CPU     23.80s WALL (       1 calls)
     potinit      :      1.16s CPU      1.23s WALL (       1 calls)

     Called by electrons:
     c_bands      :   4160.88s CPU   4211.91s WALL (      53 calls)
     sum_band     :    536.23s CPU    552.77s WALL (      53 calls)
     v_of_rho     :     15.15s CPU     15.68s WALL (      54 calls)
     v_h          :      1.43s CPU      1.48s WALL (      54 calls)
     v_xc         :     13.98s CPU     14.47s WALL (      55 calls)
     newd         :     68.75s CPU     82.23s WALL (      54 calls)
     PAW_pot      :      9.34s CPU      9.69s WALL (      54 calls)
     mix_rho      :      4.00s CPU      4.23s WALL (      53 calls)

     Called by c_bands:
     init_us_2    :      6.48s CPU      6.55s WALL (     107 calls)
     cegterg      :   3861.00s CPU   3904.36s WALL (      53 calls)

     Called by sum_band:
     sum_band:bec :      1.49s CPU      1.50s WALL (      53 calls)
     addusdens    :     83.69s CPU     97.58s WALL (      53 calls)

     Called by *egterg:
     h_psi        :   1475.14s CPU   1484.00s WALL (     137 calls)
     s_psi        :    350.93s CPU    352.00s WALL (     137 calls)
     g_psi        :      2.17s CPU      2.18s WALL (      83 calls)
     cdiaghg      :   1026.10s CPU   1039.97s WALL (     136 calls)
     cegterg:over :    413.57s CPU    416.23s WALL (      83 calls)
     cegterg:upda :    237.01s CPU    237.98s WALL (      83 calls)
     cegterg:last :    214.17s CPU    214.27s WALL (      53 calls)
     cdiaghg:chol :     51.31s CPU     51.78s WALL (     136 calls)
     cdiaghg:inve :     60.60s CPU     60.94s WALL (     136 calls)
     cdiaghg:para :    151.67s CPU    157.57s WALL (     272 calls)

     Called by h_psi:
     h_psi:pot    :   1467.96s CPU   1476.81s WALL (     137 calls)
     h_psi:calbec :    343.44s CPU    344.10s WALL (     137 calls)
     vloc_psi     :    781.41s CPU    788.28s WALL (     137 calls)
     add_vuspsi   :    343.11s CPU    344.43s WALL (     137 calls)

     General routines
     calbec       :    520.94s CPU    521.96s WALL (     194 calls)
     fft          :     18.67s CPU     19.59s WALL (     871 calls)
     ffts         :      0.56s CPU      0.58s WALL (     107 calls)
     fftw         :    735.96s CPU    742.39s WALL (  296374 calls)
     interpolate  :      3.14s CPU      3.31s WALL (     107 calls)
 
     Parallel routines
     fft_scatt_xy :     61.53s CPU     61.98s WALL (  297352 calls)
     fft_scatt_yz :    146.10s CPU    148.27s WALL (  297352 calls)

     PAW routines
     PAW_pot      :      9.34s CPU      9.69s WALL (      54 calls)
 
     PWSCF        :     1h20m CPU        1h28m WALL

 
   This run was terminated on:  20:20: 8  19Apr2019            

=------------------------------------------------------------------------------=
   JOB DONE.
=------------------------------------------------------------------------------=
