
     Program PWSCF v.6.2 (svn rev. 13949:13950) starts on 19Apr2019 at 17:30: 1 

     This program is part of the open-source Quantum ESPRESSO suite
     for quantum simulation of materials; please cite
         "P. Giannozzi et al., J. Phys.:Condens. Matter 21 395502 (2009);
         "P. Giannozzi et al., J. Phys.:Condens. Matter 29 465901 (2017);
          URL http://www.quantum-espresso.org", 
     in publications or presentations arising from this work. More details at
     http://www.quantum-espresso.org/quote

     Parallel version (MPI & OpenMP), running on     192 processor cores
     Number of MPI processes:               192
     Threads/MPI process:                     1

     MPI processes distributed on     8 nodes
     K-points division:     npool     =       8
     R & G space division:  proc/nbgrp/npool/nimage =      24
     Waiting for input...
     Reading input from standard input

     Current dimensions of program PWSCF are:
     Max number of different atomic species (ntypx) = 10
     Max number of k-points (npk) =  40000
     Max angular momentum in pseudopotentials (lmaxx) =  3
               file Al.aryjr-1.0.0-ld1.UPF: wavefunction(s)  3S 3P renormalized
               file Cu.aryjr-1.0.0-ld1.UPF: wavefunction(s)  4S 3P 3D renormalized
               file Zr.aryjr-1.0.0-ld1.UPF: wavefunction(s)  4S 4P renormalized

     Subspace diagonalization in iterative solution of the eigenvalue problem:
     one sub-group per band group will be used
     scalapack distributed-memory algorithm (size of sub-group:  3*  3 procs)

 
     Parallelization info
     --------------------
     sticks:   dense  smooth     PW     G-vecs:    dense   smooth      PW
     Min         767     384     98                87619    30986    4052
     Max         768     385     99                87622    30991    4057
     Sum       18431    9221   2373              2102909   743689   97341
 

     Title: 
     Zr49Cu49Al2                                                                


     bravais-lattice index     =            0
     lattice parameter (alat)  =      22.7304  a.u.
     unit-cell volume          =    9395.3366 (a.u.)^3
     number of atoms/cell      =          100
     number of atomic types    =            3
     number of electrons       =      1525.00
     number of Kohn-Sham states=         1086
     kinetic-energy cutoff     =      70.0000  Ry
     charge density cutoff     =     560.0000  Ry
     convergence threshold     =      1.0E-06
     mixing beta               =       0.4000
     number of iterations used =            8  plain     mixing
     Exchange-correlation      =  SLA  PW   PBX  PBC ( 1  4  3  4 0 0)

     celldm(1)=  22.730420  celldm(2)=   0.000000  celldm(3)=   0.000000
     celldm(4)=   0.000000  celldm(5)=   0.000000  celldm(6)=   0.000000

     crystal axes: (cart. coord. in units of alat)
               a(1) = (   1.000000   0.000000   0.000000 )  
               a(2) = (   0.000000   0.800000   0.000000 )  
               a(3) = (   0.000000   0.000000   1.000000 )  

     reciprocal axes: (cart. coord. in units 2 pi/alat)
               b(1) = (  1.000000  0.000000  0.000000 )  
               b(2) = (  0.000000  1.250000  0.000000 )  
               b(3) = (  0.000000  0.000000  1.000000 )  


     PseudoPot. # 1 for Al read from file:
     /scratch/rmnvm/ary.junior/UPFs/Al.aryjr-1.0.0-ld1.UPF
     MD5 check sum: 23518be3108914e66f28d0b5ae5ea896
     Pseudo is Projector augmented-wave + core cor, Zval =  3.0
     Generated using "atomic" code by A. Dal Corso  v.5.3.0 svn rev. 11974
     Shape of augmentation charge: PSQ
     Using radial grid of 1135 points,  4 beta functions with: 
                l(1) =   0
                l(2) =   0
                l(3) =   1
                l(4) =   1
     Q(r) pseudized with 0 coefficients 


     PseudoPot. # 2 for Cu read from file:
     /scratch/rmnvm/ary.junior/UPFs/Cu.aryjr-1.0.0-ld1.UPF
     MD5 check sum: 9308548b6d8348cb0f7fa79efd90ef1e
     Pseudo is Projector augmented-wave + core cor, Zval = 19.0
     Generated using "atomic" code by A. Dal Corso  v.5.3.0 svn rev. 11974
     Shape of augmentation charge: PSQ
     Using radial grid of 1199 points,  6 beta functions with: 
                l(1) =   0
                l(2) =   0
                l(3) =   1
                l(4) =   1
                l(5) =   2
                l(6) =   2
     Q(r) pseudized with 0 coefficients 


     PseudoPot. # 3 for Zr read from file:
     /scratch/rmnvm/ary.junior/UPFs/Zr.aryjr-1.0.0-ld1.UPF
     MD5 check sum: 20f111a850f3481eb9ed9a4dbb9cca44
     Pseudo is Projector augmented-wave + core cor, Zval = 12.0
     Generated using "atomic" code by A. Dal Corso  v.5.3.0 svn rev. 11974
     Shape of augmentation charge: PSQ
     Using radial grid of 1225 points,  6 beta functions with: 
                l(1) =   0
                l(2) =   0
                l(3) =   1
                l(4) =   1
                l(5) =   2
                l(6) =   2
     Q(r) pseudized with 0 coefficients 


     atomic species   valence    mass     pseudopotential
        Al             3.00    26.98150     Al( 1.00)
        Cu            19.00    63.54630     Cu( 1.00)
        Zr            12.00    91.22400     Zr( 1.00)

     No symmetry found


                                    s                        frac. trans.

      isym =  1     identity                                     

 cryst.   s( 1) = (     1          0          0      )
                  (     0          1          0      )
                  (     0          0          1      )

 cart.    s( 1) = (  1.0000000  0.0000000  0.0000000 )
                  (  0.0000000  1.0000000  0.0000000 )
                  (  0.0000000  0.0000000  1.0000000 )


   Cartesian axes

     site n.     atom                  positions (alat units)
         1           Cu  tau(   1) = (   0.1532540   0.1822072   0.1567850  )
         2           Zr  tau(   2) = (   0.2632450  -0.0152056   0.1788030  )
         3           Cu  tau(   3) = (   0.1770600   0.1052496   0.3373750  )
         4           Cu  tau(   4) = (   0.1041000   0.0488904   0.5913870  )
         5           Zr  tau(   5) = (   0.0179050   0.0261752   0.7957000  )
         6           Cu  tau(   6) = (   0.2603280   0.0525072   0.7428210  )
         7           Cu  tau(   7) = (   0.1177750   0.0818968   0.9862360  )
         8           Cu  tau(   8) = (   0.2607600   0.2839864   0.0459350  )
         9           Zr  tau(   9) = (  -0.0132520   0.2174184   0.3065150  )
        10           Cu  tau(  10) = (   0.2185700   0.2628480   0.3368330  )
        11           Zr  tau(  11) = (   0.1152240   0.3759392   0.1643430  )
        12           Zr  tau(  12) = (   0.0615040   0.3961808   0.4343910  )
        13           Zr  tau(  13) = (   0.1385390   0.2018568   0.8065140  )
        14           Zr  tau(  14) = (   0.1772030   0.3684768   0.6620950  )
        15           Cu  tau(  15) = (   0.1140550   0.3835920   0.9306380  )
        16           Zr  tau(  16) = (   0.1178980   0.5597976   0.0172560  )
        17           Cu  tau(  17) = (   0.0775240   0.5859464   0.4191720  )
        18           Cu  tau(  18) = (   0.0595990   0.5321352   0.6132270  )
        19           Zr  tau(  19) = (   0.2258380   0.5389720   0.7857960  )
        20           Cu  tau(  20) = (  -0.0091150   0.4881512   0.8077750  )
        21           Cu  tau(  21) = (   0.0411810   0.7369504  -0.0202190  )
        22           Cu  tau(  22) = (   0.1181520   0.6584424   0.2237520  )
        23           Zr  tau(  23) = (   0.1762560   0.7400104   0.4308390  )
        24           Cu  tau(  24) = (   0.0470770   0.6433040   0.7956290  )
        25           Cu  tau(  25) = (   0.1929970   0.7008312   0.6704530  )
        26           Zr  tau(  26) = (   0.3771530   0.1788784   0.2105170  )
        27           Cu  tau(  27) = (   0.5030380   0.0296496   0.2382310  )
        28           Cu  tau(  28) = (   0.3667550   0.0540048   0.3843810  )
        29           Zr  tau(  29) = (   0.2658580   0.1751184   0.5456370  )
        30           Cu  tau(  30) = (   0.3727640   0.1815600   0.7541460  )
        31           Zr  tau(  31) = (   0.4909010   0.0213240   0.8215010  )
        32           Zr  tau(  32) = (   0.3344380   0.1230872   0.9755560  )
        33           Zr  tau(  33) = (   0.5010310   0.3341376   0.0356180  )
        34           Al  tau(  34) = (   0.3891260   0.3632936   0.2506940  )
        35           Cu  tau(  35) = (   0.4270120   0.2636000   0.4181220  )
        36           Cu  tau(  36) = (   0.2812900   0.3828944   0.4547210  )
        37           Zr  tau(  37) = (   0.4431220   0.3371160   0.6301280  )
        38           Zr  tau(  38) = (   0.3330890   0.3634888   0.8486030  )
        39           Cu  tau(  39) = (   0.3161030   0.4365576   0.0742360  )
        40           Zr  tau(  40) = (   0.2556010   0.5149296   0.3018270  )
        41           Zr  tau(  41) = (   0.4786970   0.4620736   0.4392130  )
        42           Zr  tau(  42) = (   0.2806530   0.5561744   0.5536880  )
        43           Cu  tau(  43) = (   0.4540980   0.5071816   0.6937910  )
        44           Zr  tau(  44) = (   0.4302580   0.5515384   0.9390530  )
        45           Cu  tau(  45) = (   0.3223560   0.6127176   0.1068750  )
        46           Zr  tau(  46) = (   0.4766140   0.7458640   0.0524910  )
        47           Zr  tau(  47) = (   0.4135570   0.6624488   0.3415760  )
        48           Zr  tau(  48) = (   0.3922520   0.7743704   0.5853350  )
        49           Cu  tau(  49) = (   0.3999990   0.6557664   0.7561930  )
        50           Zr  tau(  50) = (   0.2492660   0.7262144   0.9111820  )
        51           Zr  tau(  51) = (   0.5957130   0.1312944   0.0496730  )
        52           Zr  tau(  52) = (   0.7575530   0.0637600   0.2343880  )
        53           Cu  tau(  53) = (   0.5410490   0.1382568   0.3663910  )
        54           Zr  tau(  54) = (   0.5357240   0.1455384   0.5991130  )
        55           Zr  tau(  55) = (   0.6936450   0.1082864   0.7999840  )
        56           Cu  tau(  56) = (   0.6996980   0.3951016   0.1236250  )
        57           Zr  tau(  57) = (   0.6154380   0.2796928   0.2608670  )
        58           Cu  tau(  58) = (   0.6163860   0.3063288   0.4899580  )
        59           Zr  tau(  59) = (   0.7406390   0.2740632   0.6748370  )
        60           Zr  tau(  60) = (   0.7412480   0.2860560   0.9376560  )
        61           Cu  tau(  61) = (   0.5350970   0.2354672   0.8319010  )
        62           Zr  tau(  62) = (   0.5219300   0.5282104   0.1802780  )
        63           Cu  tau(  63) = (   0.6764360   0.4338128   0.3511770  )
        64           Cu  tau(  64) = (   0.6518880   0.5992656   0.3811960  )
        65           Zr  tau(  65) = (   0.6685970   0.4632752   0.6194550  )
        66           Cu  tau(  66) = (   0.5727900   0.4064560   0.8178100  )
        67           Cu  tau(  67) = (   0.6643170   0.4870328   0.9696280  )
        68           Cu  tau(  68) = (   0.6453030   0.6328560   0.0288590  )
        69           Cu  tau(  69) = (   0.6369180   0.7094688   0.2400110  )
        70           Zr  tau(  70) = (   0.6303260   0.7807984   0.4397490  )
        71           Cu  tau(  71) = (   0.5295050   0.6235912   0.5795060  )
        72           Cu  tau(  72) = (   0.6242650   0.7689176   0.6522980  )
        73           Zr  tau(  73) = (   0.6264570   0.6125728   0.7858100  )
        74           Cu  tau(  74) = (   0.6866730   0.7621848   0.9360050  )
        75           Cu  tau(  75) = (   0.7980740   0.2149728   0.1298460  )
        76           Zr  tau(  76) = (   1.0111800   0.0235664   0.1891070  )
        77           Zr  tau(  77) = (   0.7674370   0.1800456   0.4300980  )
        78           Cu  tau(  78) = (   0.9704410   0.0704144   0.4356580  )
        79           Zr  tau(  79) = (   0.8233740   0.0579920   0.6018010  )
        80           Cu  tau(  80) = (   0.8934150   0.1757664   0.8001380  )
        81           Zr  tau(  81) = (   0.8687050   0.0679784   0.9774930  )
        82           Zr  tau(  82) = (   0.9982840   0.2352848   0.0350030  )
        83           Zr  tau(  83) = (   0.8616490   0.3687848   0.2520130  )
        84           Cu  tau(  84) = (   0.8132930   0.3480784   0.4791560  )
        85           Zr  tau(  85) = (   0.9981660   0.2202256   0.5806030  )
        86           Cu  tau(  86) = (   0.9756890   0.3230752   0.8175500  )
        87           Zr  tau(  87) = (   0.9133460   0.4387640   0.0248790  )
        88           Zr  tau(  88) = (   0.7753420   0.5587576   0.1916040  )
        89           Al  tau(  89) = (   1.0048900   0.5239000   0.2477300  )
        90           Zr  tau(  90) = (   0.8636860   0.5229752   0.4614320  )
        91           Cu  tau(  91) = (   0.9239290   0.3985080   0.6420570  )
        92           Cu  tau(  92) = (   0.8484040   0.5742688   0.7012020  )
        93           Cu  tau(  93) = (   0.7838010   0.4448224   0.8199790  )
        94           Cu  tau(  94) = (   0.9491700   0.6410208   0.1273720  )
        95           Cu  tau(  95) = (   0.7960670   0.7281024   0.1001260  )
        96           Zr  tau(  96) = (   0.8820060   0.6983224   0.3447760  )
        97           Zr  tau(  97) = (   0.9756070   0.6988696   0.5854800  )
        98           Cu  tau(  98) = (   0.7438140   0.6592072   0.5722210  )
        99           Cu  tau(  99) = (   0.8036460   0.7334480   0.7614030  )
       100           Zr  tau( 100) = (   0.8574510   0.6221184   0.9154230  )

   Crystallographic axes

     site n.     atom                  positions (cryst. coord.)
         1           Cu  tau(   1) = (  0.1532540  0.2277590  0.1567850  )
         2           Zr  tau(   2) = (  0.2632450 -0.0190070  0.1788030  )
         3           Cu  tau(   3) = (  0.1770600  0.1315620  0.3373750  )
         4           Cu  tau(   4) = (  0.1041000  0.0611130  0.5913870  )
         5           Zr  tau(   5) = (  0.0179050  0.0327190  0.7957000  )
         6           Cu  tau(   6) = (  0.2603280  0.0656340  0.7428210  )
         7           Cu  tau(   7) = (  0.1177750  0.1023710  0.9862360  )
         8           Cu  tau(   8) = (  0.2607600  0.3549830  0.0459350  )
         9           Zr  tau(   9) = ( -0.0132520  0.2717730  0.3065150  )
        10           Cu  tau(  10) = (  0.2185700  0.3285600  0.3368330  )
        11           Zr  tau(  11) = (  0.1152240  0.4699240  0.1643430  )
        12           Zr  tau(  12) = (  0.0615040  0.4952260  0.4343910  )
        13           Zr  tau(  13) = (  0.1385390  0.2523210  0.8065140  )
        14           Zr  tau(  14) = (  0.1772030  0.4605960  0.6620950  )
        15           Cu  tau(  15) = (  0.1140550  0.4794900  0.9306380  )
        16           Zr  tau(  16) = (  0.1178980  0.6997470  0.0172560  )
        17           Cu  tau(  17) = (  0.0775240  0.7324330  0.4191720  )
        18           Cu  tau(  18) = (  0.0595990  0.6651690  0.6132270  )
        19           Zr  tau(  19) = (  0.2258380  0.6737150  0.7857960  )
        20           Cu  tau(  20) = ( -0.0091150  0.6101890  0.8077750  )
        21           Cu  tau(  21) = (  0.0411810  0.9211880 -0.0202190  )
        22           Cu  tau(  22) = (  0.1181520  0.8230530  0.2237520  )
        23           Zr  tau(  23) = (  0.1762560  0.9250130  0.4308390  )
        24           Cu  tau(  24) = (  0.0470770  0.8041300  0.7956290  )
        25           Cu  tau(  25) = (  0.1929970  0.8760390  0.6704530  )
        26           Zr  tau(  26) = (  0.3771530  0.2235980  0.2105170  )
        27           Cu  tau(  27) = (  0.5030380  0.0370620  0.2382310  )
        28           Cu  tau(  28) = (  0.3667550  0.0675060  0.3843810  )
        29           Zr  tau(  29) = (  0.2658580  0.2188980  0.5456370  )
        30           Cu  tau(  30) = (  0.3727640  0.2269500  0.7541460  )
        31           Zr  tau(  31) = (  0.4909010  0.0266550  0.8215010  )
        32           Zr  tau(  32) = (  0.3344380  0.1538590  0.9755560  )
        33           Zr  tau(  33) = (  0.5010310  0.4176720  0.0356180  )
        34           Al  tau(  34) = (  0.3891260  0.4541170  0.2506940  )
        35           Cu  tau(  35) = (  0.4270120  0.3295000  0.4181220  )
        36           Cu  tau(  36) = (  0.2812900  0.4786180  0.4547210  )
        37           Zr  tau(  37) = (  0.4431220  0.4213950  0.6301280  )
        38           Zr  tau(  38) = (  0.3330890  0.4543610  0.8486030  )
        39           Cu  tau(  39) = (  0.3161030  0.5456970  0.0742360  )
        40           Zr  tau(  40) = (  0.2556010  0.6436620  0.3018270  )
        41           Zr  tau(  41) = (  0.4786970  0.5775920  0.4392130  )
        42           Zr  tau(  42) = (  0.2806530  0.6952180  0.5536880  )
        43           Cu  tau(  43) = (  0.4540980  0.6339770  0.6937910  )
        44           Zr  tau(  44) = (  0.4302580  0.6894230  0.9390530  )
        45           Cu  tau(  45) = (  0.3223560  0.7658970  0.1068750  )
        46           Zr  tau(  46) = (  0.4766140  0.9323300  0.0524910  )
        47           Zr  tau(  47) = (  0.4135570  0.8280610  0.3415760  )
        48           Zr  tau(  48) = (  0.3922520  0.9679630  0.5853350  )
        49           Cu  tau(  49) = (  0.3999990  0.8197080  0.7561930  )
        50           Zr  tau(  50) = (  0.2492660  0.9077680  0.9111820  )
        51           Zr  tau(  51) = (  0.5957130  0.1641180  0.0496730  )
        52           Zr  tau(  52) = (  0.7575530  0.0797000  0.2343880  )
        53           Cu  tau(  53) = (  0.5410490  0.1728210  0.3663910  )
        54           Zr  tau(  54) = (  0.5357240  0.1819230  0.5991130  )
        55           Zr  tau(  55) = (  0.6936450  0.1353580  0.7999840  )
        56           Cu  tau(  56) = (  0.6996980  0.4938770  0.1236250  )
        57           Zr  tau(  57) = (  0.6154380  0.3496160  0.2608670  )
        58           Cu  tau(  58) = (  0.6163860  0.3829110  0.4899580  )
        59           Zr  tau(  59) = (  0.7406390  0.3425790  0.6748370  )
        60           Zr  tau(  60) = (  0.7412480  0.3575700  0.9376560  )
        61           Cu  tau(  61) = (  0.5350970  0.2943340  0.8319010  )
        62           Zr  tau(  62) = (  0.5219300  0.6602630  0.1802780  )
        63           Cu  tau(  63) = (  0.6764360  0.5422660  0.3511770  )
        64           Cu  tau(  64) = (  0.6518880  0.7490820  0.3811960  )
        65           Zr  tau(  65) = (  0.6685970  0.5790940  0.6194550  )
        66           Cu  tau(  66) = (  0.5727900  0.5080700  0.8178100  )
        67           Cu  tau(  67) = (  0.6643170  0.6087910  0.9696280  )
        68           Cu  tau(  68) = (  0.6453030  0.7910700  0.0288590  )
        69           Cu  tau(  69) = (  0.6369180  0.8868360  0.2400110  )
        70           Zr  tau(  70) = (  0.6303260  0.9759980  0.4397490  )
        71           Cu  tau(  71) = (  0.5295050  0.7794890  0.5795060  )
        72           Cu  tau(  72) = (  0.6242650  0.9611470  0.6522980  )
        73           Zr  tau(  73) = (  0.6264570  0.7657160  0.7858100  )
        74           Cu  tau(  74) = (  0.6866730  0.9527310  0.9360050  )
        75           Cu  tau(  75) = (  0.7980740  0.2687160  0.1298460  )
        76           Zr  tau(  76) = (  1.0111800  0.0294580  0.1891070  )
        77           Zr  tau(  77) = (  0.7674370  0.2250570  0.4300980  )
        78           Cu  tau(  78) = (  0.9704410  0.0880180  0.4356580  )
        79           Zr  tau(  79) = (  0.8233740  0.0724900  0.6018010  )
        80           Cu  tau(  80) = (  0.8934150  0.2197080  0.8001380  )
        81           Zr  tau(  81) = (  0.8687050  0.0849730  0.9774930  )
        82           Zr  tau(  82) = (  0.9982840  0.2941060  0.0350030  )
        83           Zr  tau(  83) = (  0.8616490  0.4609810  0.2520130  )
        84           Cu  tau(  84) = (  0.8132930  0.4350980  0.4791560  )
        85           Zr  tau(  85) = (  0.9981660  0.2752820  0.5806030  )
        86           Cu  tau(  86) = (  0.9756890  0.4038440  0.8175500  )
        87           Zr  tau(  87) = (  0.9133460  0.5484550  0.0248790  )
        88           Zr  tau(  88) = (  0.7753420  0.6984470  0.1916040  )
        89           Al  tau(  89) = (  1.0048900  0.6548750  0.2477300  )
        90           Zr  tau(  90) = (  0.8636860  0.6537190  0.4614320  )
        91           Cu  tau(  91) = (  0.9239290  0.4981350  0.6420570  )
        92           Cu  tau(  92) = (  0.8484040  0.7178360  0.7012020  )
        93           Cu  tau(  93) = (  0.7838010  0.5560280  0.8199790  )
        94           Cu  tau(  94) = (  0.9491700  0.8012760  0.1273720  )
        95           Cu  tau(  95) = (  0.7960670  0.9101280  0.1001260  )
        96           Zr  tau(  96) = (  0.8820060  0.8729030  0.3447760  )
        97           Zr  tau(  97) = (  0.9756070  0.8735870  0.5854800  )
        98           Cu  tau(  98) = (  0.7438140  0.8240090  0.5722210  )
        99           Cu  tau(  99) = (  0.8036460  0.9168100  0.7614030  )
       100           Zr  tau( 100) = (  0.8574510  0.7776480  0.9154230  )

     number of k points=     8  Fermi-Dirac smearing, width (Ry)=  0.0080
                       cart. coord. in units 2pi/alat
        k(    1) = (   0.2500000   0.3125000   0.2500000), wk =   0.2500000
        k(    2) = (   0.2500000   0.3125000  -0.2500000), wk =   0.2500000
        k(    3) = (   0.2500000  -0.3125000   0.2500000), wk =   0.2500000
        k(    4) = (   0.2500000  -0.3125000  -0.2500000), wk =   0.2500000
        k(    5) = (  -0.2500000   0.3125000   0.2500000), wk =   0.2500000
        k(    6) = (  -0.2500000   0.3125000  -0.2500000), wk =   0.2500000
        k(    7) = (  -0.2500000  -0.3125000   0.2500000), wk =   0.2500000
        k(    8) = (  -0.2500000  -0.3125000  -0.2500000), wk =   0.2500000

                       cryst. coord.
        k(    1) = (   0.2500000   0.2500000   0.2500000), wk =   0.2500000
        k(    2) = (   0.2500000   0.2500000  -0.2500000), wk =   0.2500000
        k(    3) = (   0.2500000  -0.2500000   0.2500000), wk =   0.2500000
        k(    4) = (   0.2500000  -0.2500000  -0.2500000), wk =   0.2500000
        k(    5) = (  -0.2500000   0.2500000   0.2500000), wk =   0.2500000
        k(    6) = (  -0.2500000   0.2500000  -0.2500000), wk =   0.2500000
        k(    7) = (  -0.2500000  -0.2500000   0.2500000), wk =   0.2500000
        k(    8) = (  -0.2500000  -0.2500000  -0.2500000), wk =   0.2500000

     Dense  grid:  2102909 G-vectors     FFT dimensions: ( 180, 144, 180)

     Smooth grid:   743689 G-vectors     FFT dimensions: ( 125, 100, 125)

     Dynamical RAM for                 wfc:      64.15 MB

     Dynamical RAM for     wfc (w. buffer):      64.15 MB

     Dynamical RAM for           str. fact:       4.01 MB

     Dynamical RAM for           local pot:       0.00 MB

     Dynamical RAM for          nlocal pot:     105.14 MB

     Dynamical RAM for                qrad:      20.58 MB

     Dynamical RAM for          rho,v,vnew:       8.76 MB

     Dynamical RAM for               rhoin:       2.92 MB

     Dynamical RAM for            rho*nmix:      21.39 MB

     Dynamical RAM for           G-vectors:       5.25 MB

     Dynamical RAM for          h,s,v(r/c):      95.98 MB

     Dynamical RAM for          <psi|beta>:      29.50 MB

     Dynamical RAM for                 psi:     256.59 MB

     Dynamical RAM for                hpsi:     256.59 MB

     Dynamical RAM for                spsi:     256.59 MB

     Dynamical RAM for      wfcinit/wfcrot:     163.58 MB

     Dynamical RAM for           addusdens:     314.20 MB

     Dynamical RAM for          addusforce:     648.17 MB

     Estimated static dynamical RAM per process >     245.45 MB

     Estimated max dynamical RAM per process >       1.11 GB

     Estimated total dynamical RAM >     213.88 GB

     Initial potential from superposition of free atoms

     starting charge 1524.87645, renormalised to 1525.00000
     Starting wfc are 1135 randomized atomic wfcs
     Checking if some PAW data can be deallocated... 
       PAW data deallocated on  188 nodes for type:  1
       PAW data deallocated on   99 nodes for type:  2
       PAW data deallocated on   97 nodes for type:  3

     total cpu time spent up to now is       31.8 secs

     Self-consistent Calculation

     iteration #  1     ecut=    70.00 Ry     beta= 0.40
     Davidson diagonalization with overlap
     ethr =  1.00E-02,  avg # of iterations =  4.0

     total cpu time spent up to now is      216.5 secs

     total energy              =  -38829.45735262 Ry
     Harris-Foulkes estimate   =  -39000.55522142 Ry
     estimated scf accuracy    <     277.75282202 Ry

     iteration #  2     ecut=    70.00 Ry     beta= 0.40
     Davidson diagonalization with overlap
     ethr =  1.00E-02,  avg # of iterations =  3.0

     total cpu time spent up to now is      416.7 secs

     total energy              =  -38866.77533320 Ry
     Harris-Foulkes estimate   =  -39178.49736413 Ry
     estimated scf accuracy    <    1526.60215211 Ry

     iteration #  3     ecut=    70.00 Ry     beta= 0.40
     Davidson diagonalization with overlap
     ethr =  1.00E-02,  avg # of iterations =  3.0

     total cpu time spent up to now is      564.4 secs

     total energy              =  -38914.43180988 Ry
     Harris-Foulkes estimate   =  -39072.44572642 Ry
     estimated scf accuracy    <    1634.97522764 Ry

     iteration #  4     ecut=    70.00 Ry     beta= 0.40
     Davidson diagonalization with overlap
     ethr =  1.00E-02,  avg # of iterations =  3.0

     total cpu time spent up to now is      681.6 secs

     total energy              =  -38984.38510781 Ry
     Harris-Foulkes estimate   =  -39010.65601888 Ry
     estimated scf accuracy    <     180.66514202 Ry

     iteration #  5     ecut=    70.00 Ry     beta= 0.40
     Davidson diagonalization with overlap
     ethr =  1.00E-02,  avg # of iterations =  2.0

     total cpu time spent up to now is      770.8 secs

     total energy              =  -38987.70129107 Ry
     Harris-Foulkes estimate   =  -38998.75435763 Ry
     estimated scf accuracy    <     131.92038217 Ry

     iteration #  6     ecut=    70.00 Ry     beta= 0.40
     Davidson diagonalization with overlap
     ethr =  8.65E-03,  avg # of iterations =  1.0

     total cpu time spent up to now is      848.6 secs

     total energy              =  -38988.50028612 Ry
     Harris-Foulkes estimate   =  -38992.58014291 Ry
     estimated scf accuracy    <      58.66421505 Ry

     iteration #  7     ecut=    70.00 Ry     beta= 0.40
     Davidson diagonalization with overlap
     ethr =  3.85E-03,  avg # of iterations =  1.0

     total cpu time spent up to now is      926.8 secs

     total energy              =  -38987.44591815 Ry
     Harris-Foulkes estimate   =  -38990.36035380 Ry
     estimated scf accuracy    <      46.29001423 Ry

     iteration #  8     ecut=    70.00 Ry     beta= 0.40
     Davidson diagonalization with overlap
     ethr =  3.04E-03,  avg # of iterations =  1.0

     total cpu time spent up to now is     1004.8 secs

     total energy              =  -38985.06869369 Ry
     Harris-Foulkes estimate   =  -38988.30336680 Ry
     estimated scf accuracy    <      25.86520931 Ry

     iteration #  9     ecut=    70.00 Ry     beta= 0.40
     Davidson diagonalization with overlap
     ethr =  1.70E-03,  avg # of iterations =  1.0

     total cpu time spent up to now is     1082.7 secs

     total energy              =  -38984.78235349 Ry
     Harris-Foulkes estimate   =  -38985.95673415 Ry
     estimated scf accuracy    <       8.61027955 Ry

     iteration # 10     ecut=    70.00 Ry     beta= 0.40
     Davidson diagonalization with overlap
     ethr =  5.65E-04,  avg # of iterations =  3.2

     total cpu time spent up to now is     1193.2 secs

     total energy              =  -38984.02135778 Ry
     Harris-Foulkes estimate   =  -38985.27870426 Ry
     estimated scf accuracy    <       4.88352304 Ry

     iteration # 11     ecut=    70.00 Ry     beta= 0.40
     Davidson diagonalization with overlap
     ethr =  3.20E-04,  avg # of iterations =  4.2

     total cpu time spent up to now is     1335.4 secs

     total energy              =  -38984.02172696 Ry
     Harris-Foulkes estimate   =  -38985.72097498 Ry
     estimated scf accuracy    <      17.43275279 Ry

     iteration # 12     ecut=    70.00 Ry     beta= 0.40
     Davidson diagonalization with overlap
     ethr =  3.20E-04,  avg # of iterations =  2.8

     total cpu time spent up to now is     1435.1 secs

     total energy              =  -38984.63484492 Ry
     Harris-Foulkes estimate   =  -38985.09744517 Ry
     estimated scf accuracy    <       3.91200604 Ry

     iteration # 13     ecut=    70.00 Ry     beta= 0.40
     Davidson diagonalization with overlap
     ethr =  2.57E-04,  avg # of iterations =  2.0

     total cpu time spent up to now is     1523.6 secs

     total energy              =  -38984.78685799 Ry
     Harris-Foulkes estimate   =  -38985.00491392 Ry
     estimated scf accuracy    <       2.33575728 Ry

     iteration # 14     ecut=    70.00 Ry     beta= 0.40
     Davidson diagonalization with overlap
     ethr =  1.53E-04,  avg # of iterations =  1.0

     total cpu time spent up to now is     1601.5 secs

     total energy              =  -38984.87043735 Ry
     Harris-Foulkes estimate   =  -38984.92389470 Ry
     estimated scf accuracy    <       0.46452350 Ry

     iteration # 15     ecut=    70.00 Ry     beta= 0.40
     Davidson diagonalization with overlap
     ethr =  3.05E-05,  avg # of iterations =  4.6

     total cpu time spent up to now is     1741.4 secs

     total energy              =  -38984.88081589 Ry
     Harris-Foulkes estimate   =  -38984.91469334 Ry
     estimated scf accuracy    <       0.44879923 Ry

     iteration # 16     ecut=    70.00 Ry     beta= 0.40
     Davidson diagonalization with overlap
     ethr =  2.94E-05,  avg # of iterations =  3.1

     total cpu time spent up to now is     1850.7 secs

     total energy              =  -38984.87993208 Ry
     Harris-Foulkes estimate   =  -38984.91741756 Ry
     estimated scf accuracy    <       0.49204901 Ry

     iteration # 17     ecut=    70.00 Ry     beta= 0.40
     Davidson diagonalization with overlap
     ethr =  2.94E-05,  avg # of iterations =  1.0

     total cpu time spent up to now is     1928.7 secs

     total energy              =  -38984.89214714 Ry
     Harris-Foulkes estimate   =  -38984.90661765 Ry
     estimated scf accuracy    <       0.18356840 Ry

     iteration # 18     ecut=    70.00 Ry     beta= 0.40
     Davidson diagonalization with overlap
     ethr =  1.20E-05,  avg # of iterations =  2.5

     total cpu time spent up to now is     2028.1 secs

     total energy              =  -38984.89278525 Ry
     Harris-Foulkes estimate   =  -38984.90562209 Ry
     estimated scf accuracy    <       0.17821384 Ry

     iteration # 19     ecut=    70.00 Ry     beta= 0.40
     Davidson diagonalization with overlap
     ethr =  1.17E-05,  avg # of iterations =  1.0

     total cpu time spent up to now is     2105.9 secs

     total energy              =  -38984.89713700 Ry
     Harris-Foulkes estimate   =  -38984.90156877 Ry
     estimated scf accuracy    <       0.04503647 Ry

     iteration # 20     ecut=    70.00 Ry     beta= 0.40
     Davidson diagonalization with overlap
     ethr =  2.95E-06,  avg # of iterations =  6.4

     total cpu time spent up to now is     2267.0 secs

     total energy              =  -38984.89773284 Ry
     Harris-Foulkes estimate   =  -38984.90080343 Ry
     estimated scf accuracy    <       0.02201155 Ry

     iteration # 21     ecut=    70.00 Ry     beta= 0.40
     Davidson diagonalization with overlap
     ethr =  1.44E-06,  avg # of iterations =  5.4

     total cpu time spent up to now is     2450.5 secs

     total energy              =  -38984.89749243 Ry
     Harris-Foulkes estimate   =  -38984.90168881 Ry
     estimated scf accuracy    <       0.03400284 Ry

     iteration # 22     ecut=    70.00 Ry     beta= 0.40
     Davidson diagonalization with overlap
     ethr =  1.44E-06,  avg # of iterations =  1.2

     total cpu time spent up to now is     2537.3 secs

     total energy              =  -38984.89906525 Ry
     Harris-Foulkes estimate   =  -38984.90016330 Ry
     estimated scf accuracy    <       0.00878892 Ry

     iteration # 23     ecut=    70.00 Ry     beta= 0.40
     Davidson diagonalization with overlap
     ethr =  5.76E-07,  avg # of iterations =  1.0

     total cpu time spent up to now is     2615.1 secs

     total energy              =  -38984.89885526 Ry
     Harris-Foulkes estimate   =  -38984.90022171 Ry
     estimated scf accuracy    <       0.01108147 Ry

     iteration # 24     ecut=    70.00 Ry     beta= 0.40
     Davidson diagonalization with overlap
     ethr =  5.76E-07,  avg # of iterations =  1.0

     total cpu time spent up to now is     2693.6 secs

     total energy              =  -38984.89866466 Ry
     Harris-Foulkes estimate   =  -38984.90059220 Ry
     estimated scf accuracy    <       0.02560087 Ry

     iteration # 25     ecut=    70.00 Ry     beta= 0.40
     Davidson diagonalization with overlap
     ethr =  5.76E-07,  avg # of iterations =  1.0

     total cpu time spent up to now is     2771.4 secs

     total energy              =  -38984.89903541 Ry
     Harris-Foulkes estimate   =  -38984.90029118 Ry
     estimated scf accuracy    <       0.01722288 Ry

     iteration # 26     ecut=    70.00 Ry     beta= 0.40
     Davidson diagonalization with overlap
     ethr =  5.76E-07,  avg # of iterations =  1.0

     total cpu time spent up to now is     2849.1 secs

     total energy              =  -38984.89934842 Ry
     Harris-Foulkes estimate   =  -38984.90001416 Ry
     estimated scf accuracy    <       0.00846542 Ry

     iteration # 27     ecut=    70.00 Ry     beta= 0.40
     Davidson diagonalization with overlap
     ethr =  5.55E-07,  avg # of iterations =  1.0

     total cpu time spent up to now is     2926.8 secs

     total energy              =  -38984.89944204 Ry
     Harris-Foulkes estimate   =  -38984.89996754 Ry
     estimated scf accuracy    <       0.00749769 Ry

     iteration # 28     ecut=    70.00 Ry     beta= 0.40
     Davidson diagonalization with overlap
     ethr =  4.92E-07,  avg # of iterations =  1.0

     total cpu time spent up to now is     3004.6 secs

     total energy              =  -38984.89956578 Ry
     Harris-Foulkes estimate   =  -38984.89986242 Ry
     estimated scf accuracy    <       0.00412004 Ry

     iteration # 29     ecut=    70.00 Ry     beta= 0.40
     Davidson diagonalization with overlap
     ethr =  2.70E-07,  avg # of iterations =  1.0

     total cpu time spent up to now is     3082.4 secs

     total energy              =  -38984.89966698 Ry
     Harris-Foulkes estimate   =  -38984.89978007 Ry
     estimated scf accuracy    <       0.00135272 Ry

     iteration # 30     ecut=    70.00 Ry     beta= 0.40
     Davidson diagonalization with overlap
     ethr =  8.87E-08,  avg # of iterations =  1.0

     total cpu time spent up to now is     3160.1 secs

     total energy              =  -38984.89970459 Ry
     Harris-Foulkes estimate   =  -38984.89976144 Ry
     estimated scf accuracy    <       0.00050876 Ry

     iteration # 31     ecut=    70.00 Ry     beta= 0.40
     Davidson diagonalization with overlap
     ethr =  3.34E-08,  avg # of iterations =  1.0

     total cpu time spent up to now is     3238.5 secs

     total energy              =  -38984.89970713 Ry
     Harris-Foulkes estimate   =  -38984.89976340 Ry
     estimated scf accuracy    <       0.00053819 Ry

     iteration # 32     ecut=    70.00 Ry     beta= 0.40
     Davidson diagonalization with overlap
     ethr =  3.34E-08,  avg # of iterations =  1.0

     total cpu time spent up to now is     3316.6 secs

     total energy              =  -38984.89972793 Ry
     Harris-Foulkes estimate   =  -38984.89974838 Ry
     estimated scf accuracy    <       0.00019653 Ry

     iteration # 33     ecut=    70.00 Ry     beta= 0.40
     Davidson diagonalization with overlap
     ethr =  1.29E-08,  avg # of iterations =  1.0

     total cpu time spent up to now is     3394.2 secs

     total energy              =  -38984.89972698 Ry
     Harris-Foulkes estimate   =  -38984.89975048 Ry
     estimated scf accuracy    <       0.00019811 Ry

     iteration # 34     ecut=    70.00 Ry     beta= 0.40
     Davidson diagonalization with overlap
     ethr =  1.29E-08,  avg # of iterations =  1.0

     total cpu time spent up to now is     3472.1 secs

     total energy              =  -38984.89971765 Ry
     Harris-Foulkes estimate   =  -38984.89976135 Ry
     estimated scf accuracy    <       0.00055505 Ry

     iteration # 35     ecut=    70.00 Ry     beta= 0.40
     Davidson diagonalization with overlap
     ethr =  1.29E-08,  avg # of iterations =  1.0

     total cpu time spent up to now is     3550.0 secs

     total energy              =  -38984.89972160 Ry
     Harris-Foulkes estimate   =  -38984.89975938 Ry
     estimated scf accuracy    <       0.00053709 Ry

     iteration # 36     ecut=    70.00 Ry     beta= 0.40
     Davidson diagonalization with overlap
     ethr =  1.29E-08,  avg # of iterations =  1.0

     total cpu time spent up to now is     3627.9 secs

     total energy              =  -38984.89973167 Ry
     Harris-Foulkes estimate   =  -38984.89974997 Ry
     estimated scf accuracy    <       0.00023093 Ry

     iteration # 37     ecut=    70.00 Ry     beta= 0.40
     Davidson diagonalization with overlap
     ethr =  1.29E-08,  avg # of iterations =  1.0

     total cpu time spent up to now is     3705.7 secs

     total energy              =  -38984.89973093 Ry
     Harris-Foulkes estimate   =  -38984.89975237 Ry
     estimated scf accuracy    <       0.00032507 Ry

     iteration # 38     ecut=    70.00 Ry     beta= 0.40
     Davidson diagonalization with overlap
     ethr =  1.29E-08,  avg # of iterations =  1.0

     total cpu time spent up to now is     3783.5 secs

     total energy              =  -38984.89973601 Ry
     Harris-Foulkes estimate   =  -38984.89974785 Ry
     estimated scf accuracy    <       0.00016138 Ry

     iteration # 39     ecut=    70.00 Ry     beta= 0.40
     Davidson diagonalization with overlap
     ethr =  1.06E-08,  avg # of iterations =  1.0

     total cpu time spent up to now is     3861.3 secs

     total energy              =  -38984.89973903 Ry
     Harris-Foulkes estimate   =  -38984.89974583 Ry
     estimated scf accuracy    <       0.00009378 Ry

     iteration # 40     ecut=    70.00 Ry     beta= 0.40
     Davidson diagonalization with overlap
     ethr =  6.15E-09,  avg # of iterations =  1.0

     total cpu time spent up to now is     3939.5 secs

     total energy              =  -38984.89974160 Ry
     Harris-Foulkes estimate   =  -38984.89974444 Ry
     estimated scf accuracy    <       0.00002752 Ry

     iteration # 41     ecut=    70.00 Ry     beta= 0.40
     Davidson diagonalization with overlap
     ethr =  1.80E-09,  avg # of iterations =  1.0

     total cpu time spent up to now is     4017.1 secs

     total energy              =  -38984.89974210 Ry
     Harris-Foulkes estimate   =  -38984.89974408 Ry
     estimated scf accuracy    <       0.00001750 Ry

     iteration # 42     ecut=    70.00 Ry     beta= 0.40
     Davidson diagonalization with overlap
     ethr =  1.15E-09,  avg # of iterations =  1.0

     total cpu time spent up to now is     4094.9 secs

     total energy              =  -38984.89974286 Ry
     Harris-Foulkes estimate   =  -38984.89974375 Ry
     estimated scf accuracy    <       0.00001015 Ry

     iteration # 43     ecut=    70.00 Ry     beta= 0.40
     Davidson diagonalization with overlap
     ethr =  6.66E-10,  avg # of iterations =  1.0

     total cpu time spent up to now is     4172.5 secs

     total energy              =  -38984.89974300 Ry
     Harris-Foulkes estimate   =  -38984.89974385 Ry
     estimated scf accuracy    <       0.00001019 Ry

     iteration # 44     ecut=    70.00 Ry     beta= 0.40
     Davidson diagonalization with overlap
     ethr =  6.66E-10,  avg # of iterations =  1.0

     total cpu time spent up to now is     4250.2 secs

     total energy              =  -38984.89974311 Ry
     Harris-Foulkes estimate   =  -38984.89974393 Ry
     estimated scf accuracy    <       0.00000812 Ry

     iteration # 45     ecut=    70.00 Ry     beta= 0.40
     Davidson diagonalization with overlap
     ethr =  5.32E-10,  avg # of iterations =  1.0

     total cpu time spent up to now is     4327.7 secs

     total energy              =  -38984.89974298 Ry
     Harris-Foulkes estimate   =  -38984.89974410 Ry
     estimated scf accuracy    <       0.00001621 Ry

     iteration # 46     ecut=    70.00 Ry     beta= 0.40
     Davidson diagonalization with overlap
     ethr =  5.32E-10,  avg # of iterations =  1.0

     total cpu time spent up to now is     4405.8 secs

     total energy              =  -38984.89974325 Ry
     Harris-Foulkes estimate   =  -38984.89974391 Ry
     estimated scf accuracy    <       0.00000932 Ry

     iteration # 47     ecut=    70.00 Ry     beta= 0.40
     Davidson diagonalization with overlap
     ethr =  5.32E-10,  avg # of iterations =  1.0

     total cpu time spent up to now is     4483.5 secs

     total energy              =  -38984.89974323 Ry
     Harris-Foulkes estimate   =  -38984.89974396 Ry
     estimated scf accuracy    <       0.00001039 Ry

     iteration # 48     ecut=    70.00 Ry     beta= 0.40
     Davidson diagonalization with overlap
     ethr =  5.32E-10,  avg # of iterations =  1.0

     total cpu time spent up to now is     4562.1 secs

     total energy              =  -38984.89974327 Ry
     Harris-Foulkes estimate   =  -38984.89974396 Ry
     estimated scf accuracy    <       0.00000990 Ry

     iteration # 49     ecut=    70.00 Ry     beta= 0.40
     Davidson diagonalization with overlap
     ethr =  5.32E-10,  avg # of iterations =  1.0

     total cpu time spent up to now is     4639.8 secs

     total energy              =  -38984.89974340 Ry
     Harris-Foulkes estimate   =  -38984.89974391 Ry
     estimated scf accuracy    <       0.00000803 Ry

     iteration # 50     ecut=    70.00 Ry     beta= 0.40
     Davidson diagonalization with overlap
     ethr =  5.27E-10,  avg # of iterations =  1.0

     total cpu time spent up to now is     4717.7 secs

     total energy              =  -38984.89974361 Ry
     Harris-Foulkes estimate   =  -38984.89974378 Ry
     estimated scf accuracy    <       0.00000188 Ry

     iteration # 51     ecut=    70.00 Ry     beta= 0.40
     Davidson diagonalization with overlap
     ethr =  1.24E-10,  avg # of iterations =  1.0

     total cpu time spent up to now is     4795.3 secs

     End of self-consistent calculation

          k = 0.2500 0.3125 0.2500 ( 92913 PWs)   bands (ev):

   -95.2793 -95.1523 -95.0206 -94.9235 -94.9168 -94.8653 -94.8528 -94.8310
   -94.8107 -94.7944 -94.7723 -94.7594 -94.7505 -94.7430 -94.7255 -94.7206
   -94.7187 -94.7174 -94.7025 -94.6935 -94.6928 -94.6915 -94.6812 -94.6810
   -94.6595 -94.6467 -94.6299 -94.6136 -94.6067 -94.5917 -94.5754 -94.5677
   -94.5509 -94.5436 -94.5376 -94.4969 -94.4889 -94.4834 -94.4787 -94.4676
   -94.4426 -94.3958 -94.3943 -94.3873 -94.3749 -94.3652 -94.3222 -94.3203
   -94.2009 -53.0082 -52.7837 -52.5569 -52.5194 -52.4703 -52.4537 -52.4209
   -52.3813 -52.3742 -52.3734 -52.3586 -52.3569 -52.3542 -52.3512 -52.3482
   -52.3294 -52.3122 -52.2961 -52.2892 -52.2861 -52.2842 -52.2685 -52.2389
   -52.2216 -52.2182 -52.2163 -52.2126 -52.2016 -52.1925 -52.1876 -52.1862
   -52.1625 -52.1569 -52.1552 -52.1519 -52.1519 -52.1509 -52.1497 -52.1387
   -52.1292 -52.1271 -52.1221 -52.1204 -52.1138 -52.1088 -52.1020 -52.0993
   -52.0908 -52.0901 -52.0708 -52.0651 -52.0643 -52.0508 -52.0492 -52.0438
   -52.0435 -52.0363 -52.0337 -52.0305 -52.0283 -52.0268 -52.0252 -52.0209
   -52.0118 -52.0064 -52.0003 -51.9987 -51.9969 -51.9926 -51.9913 -51.9911
   -51.9869 -51.9864 -51.9712 -51.9669 -51.9626 -51.9578 -51.9563 -51.9539
   -51.9509 -51.9476 -51.9422 -51.9417 -51.9411 -51.9398 -51.9384 -51.9360
   -51.9325 -51.9297 -51.9271 -51.9247 -51.9238 -51.9145 -51.8967 -51.8957
   -51.8945 -51.8922 -51.8899 -51.8859 -51.8800 -51.8714 -51.8686 -51.8659
   -51.8608 -51.8563 -51.8495 -51.8407 -51.8371 -51.8327 -51.8317 -51.8237
   -51.8119 -51.8114 -51.8095 -51.7954 -51.7916 -51.7724 -51.7687 -51.7561
   -51.7534 -51.7487 -51.7478 -51.7455 -51.7376 -51.7332 -51.7289 -51.7213
   -51.7196 -51.7144 -51.7127 -51.7081 -51.7057 -51.6929 -51.6826 -51.6778
   -51.6633 -51.6609 -51.6448 -51.6428 -51.6313 -51.6276 -51.5980 -51.5864
   -51.5785 -51.5608 -51.5007 -51.4900 -29.3022 -29.2886 -29.2609 -29.2405
   -29.1943 -29.1828 -29.1783 -29.1660 -29.1625 -29.1529 -29.1510 -29.1431
   -29.1273 -29.1218 -29.1096 -29.1068 -29.0884 -29.0799 -29.0716 -29.0603
   -29.0467 -29.0358 -29.0323 -29.0238 -29.0052 -28.9915 -28.9851 -28.9811
   -28.9641 -28.9487 -28.9362 -28.9108 -28.9016 -28.8881 -28.8751 -28.8709
   -28.8650 -28.8538 -28.8429 -28.8163 -28.7883 -28.7748 -28.7731 -28.7409
   -28.7243 -28.6708 -28.6556 -28.5666 -28.5334  -8.5176  -8.5057  -8.3954
    -8.3151  -8.2791  -8.2056  -8.2027  -8.1433  -8.1334  -8.0216  -8.0098
    -7.9872  -7.9578  -7.9549  -7.9294  -7.9229  -7.8866  -7.8770  -7.8678
    -7.8455  -7.8287  -7.8085  -7.7982  -7.7915  -7.7810  -7.7566  -7.7468
    -7.7285  -7.7132  -7.7025  -7.6954  -7.6815  -7.6709  -7.6559  -7.6423
    -7.6281  -7.6142  -7.6057  -7.5915  -7.5759  -7.5650  -7.5603  -7.5517
    -7.5383  -7.5171  -7.5118  -7.4987  -7.4892  -7.4737  -7.4662  -7.4493
    -7.4435  -7.4297  -7.4265  -7.4135  -7.3932  -7.3872  -7.3818  -7.3747
    -7.3674  -7.3509  -7.3358  -7.3257  -7.3108  -7.3063  -7.2993  -7.2843
    -7.2814  -7.2629  -7.2560  -7.2412  -7.2309  -7.2283  -7.2137  -7.2060
    -7.1872  -7.1764  -7.1686  -7.1594  -7.1455  -7.1401  -7.1293  -7.1129
    -7.1042  -7.1020  -7.0878  -7.0794  -7.0659  -7.0537  -7.0438  -7.0332
    -7.0254  -7.0165  -7.0089  -6.9967  -6.9894  -6.9795  -6.9711  -6.9666
    -6.9604  -6.9461  -6.9395  -6.9347  -6.9195  -6.9139  -6.9027  -6.8904
    -6.8797  -6.8642  -6.8495  -6.8323  -6.8232  -6.8152  -6.8007  -6.7998
    -6.7910  -6.7777  -6.7658  -6.7552  -6.7441  -6.7310  -6.7208  -6.7040
    -6.6793  -6.6606  -6.6457  -6.6306  -6.6211  -6.5977  -6.5818  -6.5635
    -6.5488  -6.5399  -6.5091  -6.4855  -6.4764  -6.4588  -6.4566  -6.4414
    -6.3868  -6.3754  -6.3443  -6.3403  -6.1923  -6.1319  -6.1065  -5.9553
    10.7319  11.0703  11.2983  11.6532  11.8236  11.9847  12.1987  12.3765
    12.4427  12.5070  12.5627  12.7273  12.7633  12.8818  12.9700  13.0048
    13.0770  13.1030  13.1932  13.2379  13.2675  13.2947  13.3233  13.3651
    13.3678  13.3972  13.4109  13.4356  13.4706  13.4733  13.4972  13.5208
    13.5486  13.5661  13.5784  13.5964  13.6093  13.6331  13.6527  13.6599
    13.6828  13.7001  13.7096  13.7276  13.7429  13.7500  13.7632  13.7755
    13.7910  13.8023  13.8055  13.8264  13.8458  13.8584  13.8735  13.8811
    13.8881  13.9016  13.9148  13.9237  13.9344  13.9477  13.9599  13.9675
    13.9836  13.9938  14.0015  14.0128  14.0253  14.0452  14.0557  14.0646
    14.0767  14.0856  14.0933  14.1015  14.1207  14.1298  14.1370  14.1479
    14.1610  14.1687  14.1835  14.1937  14.1973  14.2105  14.2177  14.2319
    14.2411  14.2484  14.2664  14.2732  14.2845  14.2912  14.3031  14.3140
    14.3295  14.3350  14.3503  14.3598  14.3690  14.3772  14.3907  14.3956
    14.4080  14.4196  14.4395  14.4476  14.4589  14.4695  14.4824  14.4921
    14.5045  14.5085  14.5165  14.5317  14.5361  14.5490  14.5619  14.5685
    14.5752  14.5896  14.5960  14.6116  14.6151  14.6240  14.6361  14.6404
    14.6555  14.6627  14.6667  14.6799  14.6871  14.6943  14.7048  14.7150
    14.7193  14.7274  14.7378  14.7483  14.7649  14.7735  14.7844  14.7939
    14.8007  14.8090  14.8155  14.8265  14.8380  14.8534  14.8670  14.8706
    14.8767  14.8834  14.8896  14.9006  14.9071  14.9142  14.9217  14.9295
    14.9351  14.9578  14.9608  14.9679  14.9795  14.9860  15.0006  15.0157
    15.0201  15.0332  15.0367  15.0431  15.0578  15.0636  15.0749  15.0960
    15.1016  15.1106  15.1230  15.1354  15.1452  15.1552  15.1589  15.1787
    15.1899  15.1982  15.2075  15.2126  15.2326  15.2402  15.2447  15.2511
    15.2729  15.2769  15.2926  15.3055  15.3149  15.3248  15.3340  15.3431
    15.3592  15.3670  15.3778  15.3870  15.3981  15.4066  15.4180  15.4261
    15.4367  15.4413  15.4523  15.4669  15.4826  15.4877  15.5063  15.5189
    15.5255  15.5358  15.5507  15.5588  15.5815  15.5920  15.6060  15.6113
    15.6213  15.6358  15.6520  15.6622  15.6692  15.6845  15.6939  15.7137
    15.7352  15.7438  15.7551  15.7788  15.7822  15.7979  15.8076  15.8316
    15.8418  15.8574  15.8706  15.8775  15.8924  15.9189  15.9331  15.9405
    15.9643  15.9786  15.9854  16.0070  16.0283  16.0414  16.0494  16.0555
    16.0636  16.0875  16.0982  16.1121  16.1264  16.1495  16.1716  16.1884
    16.2071  16.2197  16.2458  16.2639  16.2795  16.3066  16.3129  16.3350
    16.3590  16.3953  16.4034  16.4546  16.4803  16.5158  16.5327  16.5764
    16.5903  16.6062  16.6254  16.6739  16.6978  16.7325  16.7882  16.8107
    16.8445  16.8739  16.9199  16.9561  16.9771  17.0123  17.0378  17.0768
    17.1070  17.1164  17.1720  17.2080  17.2605  17.2904  17.3402  17.3650
    17.3737  17.4053  17.4410  17.4808  17.4967  17.5303  17.5661  17.5875
    17.6264  17.6565  17.6697  17.7175  17.7285  17.7968  17.8193  17.8452
    17.8537  17.8722  17.9127  17.9434  17.9597  17.9868  18.0180  18.0322
    18.0746  18.1211  18.1566  18.1604  18.1798  18.2244  18.2491  18.2810
    18.3067  18.3351  18.3750  18.4166  18.4391  18.4593  18.4696  18.5007
    18.5432  18.5669  18.5996  18.6249  18.6419  18.6589  18.6955  18.7138
    18.7396  18.7752  18.8009  18.8318  18.8585  18.8761  18.8887  18.9230
    18.9441  18.9569  18.9801  18.9951  19.0179  19.0386  19.0822  19.1177
    19.1462  19.1832  19.2108  19.2394  19.2461  19.2867  19.3033  19.3354
    19.3585  19.3919  19.4149  19.4269  19.4508  19.4620  19.5018  19.5325
    19.5523  19.5758  19.6107  19.6314  19.6704  19.7027  19.7247  19.7566
    19.7795  19.8061  19.8329  19.8716  19.8845  19.9381  19.9427  19.9637
    20.0297  20.0461  20.0797  20.1043  20.1706  20.1825  20.2088  20.2466
    20.2708  20.3072  20.3172  20.3630  20.3936  20.4369  20.4578  20.4689
    20.5165  20.5506  20.5835  20.6119  20.6347  20.6719  20.7113  20.7384
    20.7505  20.8216  20.8527  20.8950  20.9104  20.9629  20.9767  21.0073
    21.0537  21.1029  21.1130  21.1657  21.2094  21.2426  21.2790  21.3307
    21.3438  21.3925  21.4006  21.4492  21.4699  21.5255  21.5618  21.5973
    21.6246  21.6812  21.7000  21.7608  21.7853  21.8166  21.8602  21.8646
    21.9104  21.9365  21.9882  22.0054  22.0508  22.0815  22.1286  22.1642
    22.2062  22.2220  22.2720  22.2798  22.3220  22.3844  22.4068  22.4358
    22.4570  22.4816  22.5271  22.5548  22.6295  22.6626  22.7022  22.7373
    22.7575  22.7850  22.8532  22.8643  22.9115  22.9556  22.9651  22.9912
    23.0347  23.0722  23.1167  23.1665  23.1857  23.2333  23.2464  23.2686
    23.3265  23.3502  23.3630  23.3904  23.4239  23.4469  23.5056  23.5685
    23.6057  23.6435  23.6600  23.6908  23.7061  23.7438  23.7656  23.7886
    23.8348  23.8582  23.8864  23.9345  23.9710  23.9904  24.0273  24.0347
    24.0992  24.1228  24.1824  24.2129  24.2281  24.2885  24.3058  24.3503
    24.3796  24.4238  24.4696  24.5159  24.5519  24.6037  24.6463  24.7006
    24.7375  24.7808  24.8117  24.8554  24.8817  24.9276  24.9632  24.9963
    25.0513  25.0726  25.1537  25.1666  25.2066  25.2686  25.3004  25.3606
    25.3833  25.4675  25.4744  25.5785  25.6214  25.6957  25.7677  25.8134
    25.8563  25.9363  25.9816  26.0814  26.1215  26.1835  26.2357  26.2823
    26.3110  26.3908  26.4351  26.4991  26.5482  26.6663  26.7076  26.7503
    26.8347  26.8936  26.9850  27.0016  27.0607  27.0945  27.1457  27.1853
    27.2532  27.3016  27.3527  27.4349  27.4873  27.5902  27.6442  27.6918
    27.7534  27.7768  27.8152  27.9043  27.9517  27.9950  28.0540  28.1088
    28.1541  28.2448  28.2744  28.3145  28.3621  28.3912  28.4609  28.4910
    28.5702  28.6092  28.6389  28.7226  28.7616  28.8157  28.8538  28.8863
    28.9503  28.9963  29.0177  29.0809  29.1238  29.1875  29.2137  29.2629
    29.2770  29.3379  29.3719  29.4085  29.4392  29.4933  29.5365  29.5743
    29.5973  29.6691  29.7015  29.7409  29.7918  29.8283  29.8730  29.9222
    29.9503  30.0009  30.0385  30.0702  30.1286  30.1677  30.2386  30.2476
    30.2660  30.3430  30.3886  30.4160  30.4583  30.4862  30.5486  30.6018
    30.6500  30.6805  30.7430  30.7789  30.8312  30.8824  30.9020  30.9748
    31.0066  31.0500  31.0677  31.0930  31.1273  31.1863  31.2416  31.2646
    31.3414  31.3610  31.4004  31.4457  31.4755  31.5129  31.5333  31.5936
    31.6495  31.6676  31.6988  31.7514  31.7796  31.8384  31.8794  31.9041
    31.9749  31.9930  32.0473  32.0769  32.1134  32.1313

     occupation numbers 
     1.0000   1.0000   1.0000   1.0000   1.0000   1.0000   1.0000   1.0000
     1.0000   1.0000   1.0000   1.0000   1.0000   1.0000   1.0000   1.0000
     1.0000   1.0000   1.0000   1.0000   1.0000   1.0000   1.0000   1.0000
     1.0000   1.0000   1.0000   1.0000   1.0000   1.0000   1.0000   1.0000
     1.0000   1.0000   1.0000   1.0000   1.0000   1.0000   1.0000   1.0000
     1.0000   1.0000   1.0000   1.0000   1.0000   1.0000   1.0000   1.0000
     1.0000   1.0000   1.0000   1.0000   1.0000   1.0000   1.0000   1.0000
     1.0000   1.0000   1.0000   1.0000   1.0000   1.0000   1.0000   1.0000
     1.0000   1.0000   1.0000   1.0000   1.0000   1.0000   1.0000   1.0000
     1.0000   1.0000   1.0000   1.0000   1.0000   1.0000   1.0000   1.0000
     1.0000   1.0000   1.0000   1.0000   1.0000   1.0000   1.0000   1.0000
     1.0000   1.0000   1.0000   1.0000   1.0000   1.0000   1.0000   1.0000
     1.0000   1.0000   1.0000   1.0000   1.0000   1.0000   1.0000   1.0000
     1.0000   1.0000   1.0000   1.0000   1.0000   1.0000   1.0000   1.0000
     1.0000   1.0000   1.0000   1.0000   1.0000   1.0000   1.0000   1.0000
     1.0000   1.0000   1.0000   1.0000   1.0000   1.0000   1.0000   1.0000
     1.0000   1.0000   1.0000   1.0000   1.0000   1.0000   1.0000   1.0000
     1.0000   1.0000   1.0000   1.0000   1.0000   1.0000   1.0000   1.0000
     1.0000   1.0000   1.0000   1.0000   1.0000   1.0000   1.0000   1.0000
     1.0000   1.0000   1.0000   1.0000   1.0000   1.0000   1.0000   1.0000
     1.0000   1.0000   1.0000   1.0000   1.0000   1.0000   1.0000   1.0000
     1.0000   1.0000   1.0000   1.0000   1.0000   1.0000   1.0000   1.0000
     1.0000   1.0000   1.0000   1.0000   1.0000   1.0000   1.0000   1.0000
     1.0000   1.0000   1.0000   1.0000   1.0000   1.0000   1.0000   1.0000
     1.0000   1.0000   1.0000   1.0000   1.0000   1.0000   1.0000   1.0000
     1.0000   1.0000   1.0000   1.0000   1.0000   1.0000   1.0000   1.0000
     1.0000   1.0000   1.0000   1.0000   1.0000   1.0000   1.0000   1.0000
     1.0000   1.0000   1.0000   1.0000   1.0000   1.0000   1.0000   1.0000
     1.0000   1.0000   1.0000   1.0000   1.0000   1.0000   1.0000   1.0000
     1.0000   1.0000   1.0000   1.0000   1.0000   1.0000   1.0000   1.0000
     1.0000   1.0000   1.0000   1.0000   1.0000   1.0000   1.0000   1.0000
     1.0000   1.0000   1.0000   1.0000   1.0000   1.0000   1.0000   1.0000
     1.0000   1.0000   1.0000   1.0000   1.0000   1.0000   1.0000   1.0000
     1.0000   1.0000   1.0000   1.0000   1.0000   1.0000   1.0000   1.0000
     1.0000   1.0000   1.0000   1.0000   1.0000   1.0000   1.0000   1.0000
     1.0000   1.0000   1.0000   1.0000   1.0000   1.0000   1.0000   1.0000
     1.0000   1.0000   1.0000   1.0000   1.0000   1.0000   1.0000   1.0000
     1.0000   1.0000   1.0000   1.0000   1.0000   1.0000   1.0000   1.0000
     1.0000   1.0000   1.0000   1.0000   1.0000   1.0000   1.0000   1.0000
     1.0000   1.0000   1.0000   1.0000   1.0000   1.0000   1.0000   1.0000
     1.0000   1.0000   1.0000   1.0000   1.0000   1.0000   1.0000   1.0000
     1.0000   1.0000   1.0000   1.0000   1.0000   1.0000   1.0000   1.0000
     1.0000   1.0000   1.0000   1.0000   1.0000   1.0000   1.0000   1.0000
     1.0000   1.0000   1.0000   1.0000   1.0000   1.0000   1.0000   1.0000
     1.0000   1.0000   1.0000   1.0000   1.0000   1.0000   1.0000   1.0000
     1.0000   1.0000   1.0000   1.0000   1.0000   1.0000   1.0000   1.0000
     1.0000   1.0000   1.0000   1.0000   1.0000   1.0000   1.0000   1.0000
     1.0000   1.0000   1.0000   1.0000   1.0000   1.0000   1.0000   1.0000
     1.0000   1.0000   1.0000   1.0000   1.0000   1.0000   1.0000   1.0000
     1.0000   1.0000   1.0000   1.0000   1.0000   1.0000   1.0000   1.0000
     1.0000   1.0000   1.0000   1.0000   1.0000   1.0000   1.0000   1.0000
     1.0000   1.0000   1.0000   1.0000   1.0000   1.0000   1.0000   1.0000
     1.0000   1.0000   1.0000   1.0000   1.0000   1.0000   1.0000   1.0000
     1.0000   1.0000   1.0000   1.0000   1.0000   1.0000   1.0000   1.0000
     1.0000   1.0000   1.0000   1.0000   1.0000   1.0000   1.0000   1.0000
     1.0000   1.0000   1.0000   1.0000   1.0000   1.0000   1.0000   1.0000
     1.0000   1.0000   1.0000   1.0000   1.0000   1.0000   1.0000   1.0000
     1.0000   1.0000   1.0000   1.0000   1.0000   1.0000   1.0000   1.0000
     1.0000   1.0000   1.0000   1.0000   1.0000   1.0000   1.0000   1.0000
     1.0000   1.0000   1.0000   1.0000   1.0000   1.0000   1.0000   1.0000
     1.0000   1.0000   1.0000   1.0000   1.0000   1.0000   1.0000   1.0000
     1.0000   1.0000   1.0000   1.0000   1.0000   1.0000   1.0000   1.0000
     1.0000   1.0000   1.0000   1.0000   1.0000   1.0000   1.0000   1.0000
     1.0000   1.0000   1.0000   1.0000   1.0000   1.0000   1.0000   1.0000
     1.0000   1.0000   1.0000   1.0000   1.0000   1.0000   1.0000   1.0000
     1.0000   1.0000   1.0000   1.0000   1.0000   1.0000   1.0000   1.0000
     1.0000   1.0000   1.0000   1.0000   1.0000   1.0000   1.0000   1.0000
     1.0000   1.0000   1.0000   1.0000   1.0000   1.0000   1.0000   1.0000
     1.0000   1.0000   1.0000   1.0000   1.0000   1.0000   1.0000   1.0000
     1.0000   1.0000   1.0000   1.0000   1.0000   1.0000   1.0000   1.0000
     1.0000   1.0000   1.0000   1.0000   1.0000   1.0000   1.0000   1.0000
     1.0000   1.0000   1.0000   1.0000   1.0000   1.0000   1.0000   1.0000
     1.0000   1.0000   1.0000   1.0000   1.0000   1.0000   1.0000   1.0000
     1.0000   1.0000   1.0000   1.0000   1.0000   1.0000   1.0000   1.0000
     1.0000   1.0000   1.0000   1.0000   1.0000   1.0000   1.0000   1.0000
     1.0000   1.0000   1.0000   1.0000   1.0000   1.0000   1.0000   1.0000
     1.0000   1.0000   1.0000   1.0000   1.0000   1.0000   1.0000   1.0000
     1.0000   1.0000   1.0000   1.0000   1.0000   1.0000   1.0000   1.0000
     1.0000   1.0000   1.0000   1.0000   1.0000   1.0000   1.0000   1.0000
     1.0000   1.0000   1.0000   1.0000   1.0000   1.0000   1.0000   1.0000
     1.0000   1.0000   1.0000   1.0000   1.0000   1.0000   1.0000   1.0000
     1.0000   1.0000   1.0000   1.0000   1.0000   1.0000   1.0000   1.0000
     1.0000   1.0000   1.0000   1.0000   1.0000   1.0000   1.0000   1.0000
     1.0000   1.0000   1.0000   1.0000   1.0000   1.0000   1.0000   1.0000
     1.0000   1.0000   1.0000   1.0000   1.0000   1.0000   1.0000   1.0000
     1.0000   1.0000   1.0000   1.0000   1.0000   1.0000   1.0000   1.0000
     1.0000   1.0000   1.0000   1.0000   1.0000   1.0000   1.0000   1.0000
     1.0000   1.0000   1.0000   1.0000   1.0000   1.0000   1.0000   1.0000
     1.0000   1.0000   1.0000   1.0000   1.0000   1.0000   1.0000   1.0000
     1.0000   1.0000   1.0000   1.0000   1.0000   1.0000   1.0000   1.0000
     1.0000   0.9999   0.9999   0.9999   0.9999   0.9999   0.9998   0.9998
     0.9997   0.9996   0.9995   0.9992   0.9991   0.9989   0.9987   0.9983
     0.9975   0.9969   0.9959   0.9948   0.9939   0.9929   0.9901   0.9883
     0.9852   0.9796   0.9744   0.9662   0.9572   0.9501   0.9443   0.9252
     0.9106   0.9006   0.8798   0.8644   0.8380   0.8105   0.7413   0.6740
     0.6142   0.5312   0.4679   0.4033   0.3887   0.3044   0.2731   0.2186
     0.1846   0.1428   0.1188   0.1077   0.0884   0.0804   0.0572   0.0437
     0.0367   0.0298   0.0218   0.0181   0.0127   0.0095   0.0078   0.0058
     0.0047   0.0037   0.0029   0.0020   0.0018   0.0011   0.0011   0.0009
     0.0005   0.0004   0.0003   0.0002   0.0001   0.0001   0.0001   0.0001
     0.0001   0.0000   0.0000   0.0000   0.0000   0.0000   0.0000   0.0000
     0.0000   0.0000   0.0000   0.0000   0.0000   0.0000   0.0000   0.0000
     0.0000   0.0000   0.0000   0.0000   0.0000   0.0000   0.0000   0.0000
     0.0000   0.0000   0.0000   0.0000   0.0000   0.0000   0.0000   0.0000
     0.0000   0.0000   0.0000   0.0000   0.0000   0.0000   0.0000   0.0000
     0.0000   0.0000   0.0000   0.0000   0.0000   0.0000   0.0000   0.0000
     0.0000   0.0000   0.0000   0.0000   0.0000   0.0000   0.0000   0.0000
     0.0000   0.0000   0.0000   0.0000   0.0000   0.0000   0.0000   0.0000
     0.0000   0.0000   0.0000   0.0000   0.0000   0.0000   0.0000   0.0000
     0.0000   0.0000   0.0000   0.0000   0.0000   0.0000   0.0000   0.0000
     0.0000   0.0000   0.0000   0.0000   0.0000   0.0000   0.0000   0.0000
     0.0000   0.0000   0.0000   0.0000   0.0000   0.0000   0.0000   0.0000
     0.0000   0.0000   0.0000   0.0000   0.0000   0.0000   0.0000   0.0000
     0.0000   0.0000   0.0000   0.0000   0.0000   0.0000   0.0000   0.0000
     0.0000   0.0000   0.0000   0.0000   0.0000   0.0000   0.0000   0.0000
     0.0000   0.0000   0.0000   0.0000   0.0000   0.0000   0.0000   0.0000
     0.0000   0.0000   0.0000   0.0000   0.0000   0.0000   0.0000   0.0000
     0.0000   0.0000   0.0000   0.0000   0.0000   0.0000   0.0000   0.0000
     0.0000   0.0000   0.0000   0.0000   0.0000   0.0000   0.0000   0.0000
     0.0000   0.0000   0.0000   0.0000   0.0000   0.0000   0.0000   0.0000
     0.0000   0.0000   0.0000   0.0000   0.0000   0.0000   0.0000   0.0000
     0.0000   0.0000   0.0000   0.0000   0.0000   0.0000   0.0000   0.0000
     0.0000   0.0000   0.0000   0.0000   0.0000   0.0000   0.0000   0.0000
     0.0000   0.0000   0.0000   0.0000   0.0000   0.0000   0.0000   0.0000
     0.0000   0.0000   0.0000   0.0000   0.0000   0.0000   0.0000   0.0000
     0.0000   0.0000   0.0000   0.0000   0.0000   0.0000   0.0000   0.0000
     0.0000   0.0000   0.0000   0.0000   0.0000   0.0000   0.0000   0.0000
     0.0000   0.0000   0.0000   0.0000   0.0000   0.0000   0.0000   0.0000
     0.0000   0.0000   0.0000   0.0000   0.0000   0.0000   0.0000   0.0000
     0.0000   0.0000   0.0000   0.0000   0.0000   0.0000   0.0000   0.0000
     0.0000   0.0000   0.0000   0.0000   0.0000   0.0000   0.0000   0.0000
     0.0000   0.0000   0.0000   0.0000   0.0000   0.0000   0.0000   0.0000
     0.0000   0.0000   0.0000   0.0000   0.0000   0.0000   0.0000   0.0000
     0.0000   0.0000   0.0000   0.0000   0.0000   0.0000   0.0000   0.0000
     0.0000   0.0000   0.0000   0.0000   0.0000   0.0000   0.0000   0.0000
     0.0000   0.0000   0.0000   0.0000   0.0000   0.0000

          k = 0.2500 0.3125-0.2500 ( 92913 PWs)   bands (ev):

   -95.2793 -95.1523 -95.0206 -94.9235 -94.9168 -94.8653 -94.8528 -94.8310
   -94.8107 -94.7944 -94.7723 -94.7594 -94.7505 -94.7431 -94.7255 -94.7206
   -94.7187 -94.7174 -94.7025 -94.6935 -94.6928 -94.6915 -94.6812 -94.6810
   -94.6595 -94.6467 -94.6299 -94.6136 -94.6067 -94.5917 -94.5754 -94.5677
   -94.5509 -94.5436 -94.5376 -94.4969 -94.4889 -94.4834 -94.4787 -94.4676
   -94.4426 -94.3959 -94.3943 -94.3873 -94.3749 -94.3652 -94.3222 -94.3203
   -94.2009 -53.0082 -52.7837 -52.5569 -52.5194 -52.4704 -52.4537 -52.4209
   -52.3813 -52.3742 -52.3734 -52.3586 -52.3570 -52.3542 -52.3512 -52.3482
   -52.3294 -52.3122 -52.2961 -52.2892 -52.2861 -52.2842 -52.2685 -52.2389
   -52.2216 -52.2182 -52.2163 -52.2125 -52.2016 -52.1925 -52.1876 -52.1862
   -52.1625 -52.1569 -52.1552 -52.1519 -52.1519 -52.1509 -52.1497 -52.1387
   -52.1292 -52.1271 -52.1221 -52.1204 -52.1138 -52.1088 -52.1020 -52.0993
   -52.0908 -52.0901 -52.0707 -52.0651 -52.0643 -52.0508 -52.0492 -52.0438
   -52.0435 -52.0363 -52.0337 -52.0305 -52.0283 -52.0268 -52.0252 -52.0209
   -52.0118 -52.0064 -52.0003 -51.9987 -51.9969 -51.9926 -51.9913 -51.9911
   -51.9869 -51.9864 -51.9712 -51.9669 -51.9626 -51.9578 -51.9563 -51.9539
   -51.9509 -51.9476 -51.9422 -51.9417 -51.9411 -51.9398 -51.9384 -51.9360
   -51.9325 -51.9297 -51.9271 -51.9247 -51.9238 -51.9145 -51.8967 -51.8956
   -51.8945 -51.8922 -51.8899 -51.8859 -51.8800 -51.8714 -51.8686 -51.8659
   -51.8608 -51.8563 -51.8495 -51.8407 -51.8371 -51.8327 -51.8317 -51.8236
   -51.8119 -51.8114 -51.8095 -51.7954 -51.7916 -51.7724 -51.7687 -51.7561
   -51.7534 -51.7487 -51.7478 -51.7455 -51.7376 -51.7332 -51.7289 -51.7213
   -51.7196 -51.7144 -51.7127 -51.7081 -51.7057 -51.6929 -51.6826 -51.6778
   -51.6633 -51.6609 -51.6449 -51.6428 -51.6313 -51.6276 -51.5980 -51.5865
   -51.5785 -51.5608 -51.5007 -51.4900 -29.3022 -29.2886 -29.2613 -29.2401
   -29.1904 -29.1863 -29.1811 -29.1655 -29.1629 -29.1537 -29.1454 -29.1423
   -29.1313 -29.1235 -29.1111 -29.1006 -29.0901 -29.0820 -29.0699 -29.0573
   -29.0515 -29.0390 -29.0275 -29.0236 -29.0041 -28.9923 -28.9845 -28.9825
   -28.9641 -28.9485 -28.9360 -28.9106 -28.9020 -28.8880 -28.8747 -28.8714
   -28.8647 -28.8536 -28.8432 -28.8162 -28.7883 -28.7750 -28.7728 -28.7409
   -28.7243 -28.6708 -28.6556 -28.5666 -28.5334  -8.5173  -8.5059  -8.3953
    -8.3163  -8.2792  -8.2057  -8.2014  -8.1443  -8.1332  -8.0221  -8.0108
    -7.9826  -7.9592  -7.9465  -7.9393  -7.9133  -7.8917  -7.8824  -7.8591
    -7.8483  -7.8298  -7.8120  -7.8071  -7.7892  -7.7728  -7.7587  -7.7505
    -7.7330  -7.7130  -7.7061  -7.6926  -7.6812  -7.6630  -7.6452  -7.6402
    -7.6292  -7.6129  -7.6089  -7.5946  -7.5788  -7.5704  -7.5619  -7.5491
    -7.5370  -7.5215  -7.5042  -7.4962  -7.4838  -7.4777  -7.4706  -7.4609
    -7.4486  -7.4369  -7.4270  -7.4138  -7.4020  -7.3835  -7.3772  -7.3683
    -7.3524  -7.3451  -7.3303  -7.3230  -7.3128  -7.3061  -7.2927  -7.2892
    -7.2734  -7.2657  -7.2577  -7.2449  -7.2380  -7.2279  -7.2132  -7.2043
    -7.1894  -7.1775  -7.1600  -7.1540  -7.1497  -7.1381  -7.1303  -7.1238
    -7.1066  -7.1021  -7.1001  -7.0788  -7.0634  -7.0577  -7.0453  -7.0301
    -7.0241  -7.0147  -7.0080  -7.0019  -6.9876  -6.9804  -6.9714  -6.9656
    -6.9592  -6.9527  -6.9373  -6.9330  -6.9177  -6.9121  -6.8989  -6.8921
    -6.8707  -6.8572  -6.8473  -6.8368  -6.8267  -6.8151  -6.8054  -6.7971
    -6.7869  -6.7821  -6.7683  -6.7543  -6.7412  -6.7296  -6.7230  -6.7042
    -6.6824  -6.6634  -6.6425  -6.6309  -6.6178  -6.5993  -6.5819  -6.5690
    -6.5510  -6.5336  -6.5103  -6.4861  -6.4763  -6.4580  -6.4555  -6.4412
    -6.3856  -6.3769  -6.3436  -6.3414  -6.1924  -6.1319  -6.1064  -5.9553
    10.7289  11.1017  11.2645  11.6054  11.8924  12.0072  12.1804  12.3598
    12.4005  12.5322  12.5740  12.7073  12.8321  12.8543  12.9248  13.0137
    13.0637  13.1555  13.2068  13.2261  13.2520  13.2748  13.3300  13.3512
    13.3827  13.3909  13.4130  13.4300  13.4556  13.4729  13.5054  13.5361
    13.5547  13.5667  13.5848  13.6002  13.6150  13.6290  13.6496  13.6622
    13.6691  13.6948  13.7170  13.7297  13.7371  13.7532  13.7697  13.7798
    13.7908  13.8028  13.8109  13.8276  13.8376  13.8517  13.8659  13.8771
    13.8930  13.8989  13.9170  13.9291  13.9379  13.9524  13.9565  13.9713
    13.9831  13.9896  14.0035  14.0136  14.0305  14.0388  14.0515  14.0568
    14.0687  14.0867  14.0941  14.1092  14.1147  14.1257  14.1397  14.1546
    14.1618  14.1755  14.1805  14.1921  14.2048  14.2146  14.2222  14.2291
    14.2432  14.2496  14.2625  14.2797  14.2942  14.3046  14.3141  14.3240
    14.3334  14.3428  14.3459  14.3538  14.3702  14.3776  14.3893  14.4055
    14.4107  14.4239  14.4281  14.4329  14.4475  14.4595  14.4742  14.4843
    14.4920  14.5004  14.5138  14.5281  14.5370  14.5422  14.5600  14.5639
    14.5747  14.5799  14.5950  14.5985  14.6095  14.6256  14.6349  14.6426
    14.6497  14.6619  14.6662  14.6782  14.6929  14.7014  14.7159  14.7205
    14.7228  14.7275  14.7480  14.7556  14.7668  14.7807  14.7898  14.7997
    14.8050  14.8175  14.8192  14.8239  14.8346  14.8440  14.8529  14.8599
    14.8662  14.8851  14.8945  14.9046  14.9083  14.9211  14.9268  14.9295
    14.9451  14.9572  14.9658  14.9720  14.9847  14.9977  14.9998  15.0148
    15.0199  15.0295  15.0354  15.0387  15.0545  15.0671  15.0821  15.0876
    15.1031  15.1162  15.1239  15.1331  15.1446  15.1547  15.1670  15.1776
    15.1842  15.1868  15.2073  15.2129  15.2181  15.2327  15.2363  15.2566
    15.2671  15.2737  15.2915  15.2997  15.3119  15.3269  15.3380  15.3395
    15.3520  15.3656  15.3764  15.3919  15.4013  15.4075  15.4177  15.4320
    15.4392  15.4461  15.4562  15.4725  15.4871  15.4888  15.5120  15.5169
    15.5284  15.5404  15.5509  15.5626  15.5793  15.5840  15.5917  15.6071
    15.6233  15.6338  15.6521  15.6696  15.6723  15.6869  15.6960  15.7190
    15.7297  15.7426  15.7593  15.7691  15.7882  15.7933  15.8104  15.8191
    15.8437  15.8581  15.8773  15.8947  15.8999  15.9105  15.9198  15.9365
    15.9498  15.9845  15.9987  16.0001  16.0148  16.0317  16.0503  16.0582
    16.0723  16.0817  16.1059  16.1123  16.1236  16.1416  16.1526  16.1875
    16.1988  16.2079  16.2230  16.2462  16.2785  16.2903  16.3290  16.3454
    16.3837  16.3937  16.4191  16.4482  16.4614  16.5088  16.5505  16.5776
    16.6028  16.6295  16.6501  16.6783  16.7204  16.7418  16.7786  16.7982
    16.8345  16.8823  16.9247  16.9598  16.9742  16.9940  17.0502  17.1043
    17.1243  17.1506  17.1716  17.1958  17.2389  17.2641  17.3097  17.3296
    17.3871  17.3943  17.4394  17.4815  17.5113  17.5408  17.5719  17.5992
    17.6041  17.6414  17.6987  17.7294  17.7496  17.7781  17.8097  17.8348
    17.8744  17.9009  17.9176  17.9354  17.9803  18.0006  18.0364  18.0759
    18.0966  18.1260  18.1447  18.1625  18.2009  18.2244  18.2568  18.2703
    18.2932  18.3406  18.3691  18.3934  18.4107  18.4452  18.4886  18.4929
    18.5188  18.5614  18.5790  18.6068  18.6375  18.6644  18.6869  18.7046
    18.7475  18.7688  18.7975  18.8203  18.8377  18.8525  18.8879  18.9025
    18.9426  18.9576  19.0050  19.0167  19.0251  19.0496  19.0917  19.1322
    19.1403  19.1628  19.1789  19.2251  19.2394  19.2716  19.2993  19.3275
    19.3368  19.3726  19.4028  19.4368  19.4598  19.4764  19.5021  19.5132
    19.5516  19.5641  19.5872  19.6218  19.6973  19.7156  19.7324  19.7688
    19.8161  19.8466  19.8604  19.8681  19.9091  19.9383  19.9529  19.9838
    20.0214  20.0523  20.0726  20.1281  20.1519  20.1564  20.1907  20.2264
    20.2444  20.2730  20.2942  20.3633  20.3835  20.4138  20.4428  20.5061
    20.5466  20.5724  20.6007  20.6465  20.6648  20.6940  20.7146  20.7625
    20.7739  20.8061  20.8543  20.8836  20.9160  20.9599  20.9855  21.0099
    21.0318  21.0996  21.1153  21.1577  21.1809  21.2121  21.2750  21.3210
    21.3461  21.3946  21.4201  21.4538  21.4816  21.5167  21.5593  21.5950
    21.6122  21.6539  21.6855  21.7132  21.7669  21.7918  21.8458  21.8748
    21.9374  21.9652  22.0179  22.0381  22.0545  22.0985  22.1333  22.1670
    22.1984  22.2535  22.2656  22.2925  22.3241  22.3656  22.4147  22.4246
    22.4981  22.5083  22.5787  22.5827  22.6325  22.6619  22.6846  22.7390
    22.7755  22.7909  22.8245  22.8560  22.8959  22.9213  22.9923  23.0066
    23.0391  23.0897  23.1008  23.1414  23.1852  23.2186  23.2393  23.2656
    23.3176  23.3474  23.3873  23.3930  23.4303  23.4791  23.5190  23.5323
    23.5764  23.5971  23.6300  23.6645  23.6960  23.7322  23.7509  23.7891
    23.8187  23.8572  23.8990  23.9280  23.9589  24.0077  24.0429  24.0837
    24.1065  24.1440  24.1748  24.2038  24.2582  24.2768  24.3170  24.3548
    24.4101  24.4304  24.4677  24.5268  24.5645  24.5959  24.6226  24.6688
    24.7055  24.7479  24.7740  24.8306  24.8751  24.9003  24.9473  24.9819
    25.0419  25.0696  25.1396  25.1648  25.2131  25.2470  25.3165  25.3296
    25.4047  25.4557  25.5057  25.5918  25.6324  25.7243  25.7647  25.8216
    25.8774  25.9397  26.0247  26.0569  26.0713  26.1722  26.2691  26.3182
    26.3758  26.3910  26.4252  26.5290  26.5857  26.6234  26.6657  26.7833
    26.8076  26.8676  26.9849  27.0251  27.0529  27.1102  27.1932  27.2300
    27.3007  27.3750  27.3902  27.4955  27.5212  27.5566  27.6276  27.6662
    27.7373  27.7799  27.8558  27.8910  27.9888  28.0058  28.0298  28.0805
    28.1512  28.2048  28.2675  28.2981  28.3316  28.4056  28.4278  28.4791
    28.5202  28.5627  28.6250  28.6952  28.7225  28.7862  28.8046  28.8533
    28.9047  28.9823  29.0047  29.0637  29.0780  29.1197  29.2011  29.2469
    29.2819  29.3417  29.3499  29.3753  29.4115  29.4571  29.5648  29.5852
    29.6342  29.6954  29.7069  29.7722  29.8008  29.8383  29.9031  29.9410
    29.9633  30.0419  30.0653  30.1122  30.1511  30.1937  30.2470  30.2720
    30.3070  30.3751  30.4198  30.4445  30.4792  30.5158  30.5933  30.6166
    30.6930  30.7233  30.7527  30.8400  30.8750  30.8912  30.9118  30.9483
    30.9976  31.0310  31.0579  31.0928  31.1470  31.1773  31.2113  31.2584
    31.3173  31.3488  31.3786  31.4116  31.4676  31.4918  31.5257  31.5703
    31.6141  31.6744  31.7068  31.7604  31.7775  31.8139  31.8665  31.8797
    31.9478  31.9791  32.0405  32.0771  32.1126  32.1700

     occupation numbers 
     1.0000   1.0000   1.0000   1.0000   1.0000   1.0000   1.0000   1.0000
     1.0000   1.0000   1.0000   1.0000   1.0000   1.0000   1.0000   1.0000
     1.0000   1.0000   1.0000   1.0000   1.0000   1.0000   1.0000   1.0000
     1.0000   1.0000   1.0000   1.0000   1.0000   1.0000   1.0000   1.0000
     1.0000   1.0000   1.0000   1.0000   1.0000   1.0000   1.0000   1.0000
     1.0000   1.0000   1.0000   1.0000   1.0000   1.0000   1.0000   1.0000
     1.0000   1.0000   1.0000   1.0000   1.0000   1.0000   1.0000   1.0000
     1.0000   1.0000   1.0000   1.0000   1.0000   1.0000   1.0000   1.0000
     1.0000   1.0000   1.0000   1.0000   1.0000   1.0000   1.0000   1.0000
     1.0000   1.0000   1.0000   1.0000   1.0000   1.0000   1.0000   1.0000
     1.0000   1.0000   1.0000   1.0000   1.0000   1.0000   1.0000   1.0000
     1.0000   1.0000   1.0000   1.0000   1.0000   1.0000   1.0000   1.0000
     1.0000   1.0000   1.0000   1.0000   1.0000   1.0000   1.0000   1.0000
     1.0000   1.0000   1.0000   1.0000   1.0000   1.0000   1.0000   1.0000
     1.0000   1.0000   1.0000   1.0000   1.0000   1.0000   1.0000   1.0000
     1.0000   1.0000   1.0000   1.0000   1.0000   1.0000   1.0000   1.0000
     1.0000   1.0000   1.0000   1.0000   1.0000   1.0000   1.0000   1.0000
     1.0000   1.0000   1.0000   1.0000   1.0000   1.0000   1.0000   1.0000
     1.0000   1.0000   1.0000   1.0000   1.0000   1.0000   1.0000   1.0000
     1.0000   1.0000   1.0000   1.0000   1.0000   1.0000   1.0000   1.0000
     1.0000   1.0000   1.0000   1.0000   1.0000   1.0000   1.0000   1.0000
     1.0000   1.0000   1.0000   1.0000   1.0000   1.0000   1.0000   1.0000
     1.0000   1.0000   1.0000   1.0000   1.0000   1.0000   1.0000   1.0000
     1.0000   1.0000   1.0000   1.0000   1.0000   1.0000   1.0000   1.0000
     1.0000   1.0000   1.0000   1.0000   1.0000   1.0000   1.0000   1.0000
     1.0000   1.0000   1.0000   1.0000   1.0000   1.0000   1.0000   1.0000
     1.0000   1.0000   1.0000   1.0000   1.0000   1.0000   1.0000   1.0000
     1.0000   1.0000   1.0000   1.0000   1.0000   1.0000   1.0000   1.0000
     1.0000   1.0000   1.0000   1.0000   1.0000   1.0000   1.0000   1.0000
     1.0000   1.0000   1.0000   1.0000   1.0000   1.0000   1.0000   1.0000
     1.0000   1.0000   1.0000   1.0000   1.0000   1.0000   1.0000   1.0000
     1.0000   1.0000   1.0000   1.0000   1.0000   1.0000   1.0000   1.0000
     1.0000   1.0000   1.0000   1.0000   1.0000   1.0000   1.0000   1.0000
     1.0000   1.0000   1.0000   1.0000   1.0000   1.0000   1.0000   1.0000
     1.0000   1.0000   1.0000   1.0000   1.0000   1.0000   1.0000   1.0000
     1.0000   1.0000   1.0000   1.0000   1.0000   1.0000   1.0000   1.0000
     1.0000   1.0000   1.0000   1.0000   1.0000   1.0000   1.0000   1.0000
     1.0000   1.0000   1.0000   1.0000   1.0000   1.0000   1.0000   1.0000
     1.0000   1.0000   1.0000   1.0000   1.0000   1.0000   1.0000   1.0000
     1.0000   1.0000   1.0000   1.0000   1.0000   1.0000   1.0000   1.0000
     1.0000   1.0000   1.0000   1.0000   1.0000   1.0000   1.0000   1.0000
     1.0000   1.0000   1.0000   1.0000   1.0000   1.0000   1.0000   1.0000
     1.0000   1.0000   1.0000   1.0000   1.0000   1.0000   1.0000   1.0000
     1.0000   1.0000   1.0000   1.0000   1.0000   1.0000   1.0000   1.0000
     1.0000   1.0000   1.0000   1.0000   1.0000   1.0000   1.0000   1.0000
     1.0000   1.0000   1.0000   1.0000   1.0000   1.0000   1.0000   1.0000
     1.0000   1.0000   1.0000   1.0000   1.0000   1.0000   1.0000   1.0000
     1.0000   1.0000   1.0000   1.0000   1.0000   1.0000   1.0000   1.0000
     1.0000   1.0000   1.0000   1.0000   1.0000   1.0000   1.0000   1.0000
     1.0000   1.0000   1.0000   1.0000   1.0000   1.0000   1.0000   1.0000
     1.0000   1.0000   1.0000   1.0000   1.0000   1.0000   1.0000   1.0000
     1.0000   1.0000   1.0000   1.0000   1.0000   1.0000   1.0000   1.0000
     1.0000   1.0000   1.0000   1.0000   1.0000   1.0000   1.0000   1.0000
     1.0000   1.0000   1.0000   1.0000   1.0000   1.0000   1.0000   1.0000
     1.0000   1.0000   1.0000   1.0000   1.0000   1.0000   1.0000   1.0000
     1.0000   1.0000   1.0000   1.0000   1.0000   1.0000   1.0000   1.0000
     1.0000   1.0000   1.0000   1.0000   1.0000   1.0000   1.0000   1.0000
     1.0000   1.0000   1.0000   1.0000   1.0000   1.0000   1.0000   1.0000
     1.0000   1.0000   1.0000   1.0000   1.0000   1.0000   1.0000   1.0000
     1.0000   1.0000   1.0000   1.0000   1.0000   1.0000   1.0000   1.0000
     1.0000   1.0000   1.0000   1.0000   1.0000   1.0000   1.0000   1.0000
     1.0000   1.0000   1.0000   1.0000   1.0000   1.0000   1.0000   1.0000
     1.0000   1.0000   1.0000   1.0000   1.0000   1.0000   1.0000   1.0000
     1.0000   1.0000   1.0000   1.0000   1.0000   1.0000   1.0000   1.0000
     1.0000   1.0000   1.0000   1.0000   1.0000   1.0000   1.0000   1.0000
     1.0000   1.0000   1.0000   1.0000   1.0000   1.0000   1.0000   1.0000
     1.0000   1.0000   1.0000   1.0000   1.0000   1.0000   1.0000   1.0000
     1.0000   1.0000   1.0000   1.0000   1.0000   1.0000   1.0000   1.0000
     1.0000   1.0000   1.0000   1.0000   1.0000   1.0000   1.0000   1.0000
     1.0000   1.0000   1.0000   1.0000   1.0000   1.0000   1.0000   1.0000
     1.0000   1.0000   1.0000   1.0000   1.0000   1.0000   1.0000   1.0000
     1.0000   1.0000   1.0000   1.0000   1.0000   1.0000   1.0000   1.0000
     1.0000   1.0000   1.0000   1.0000   1.0000   1.0000   1.0000   1.0000
     1.0000   1.0000   1.0000   1.0000   1.0000   1.0000   1.0000   1.0000
     1.0000   1.0000   1.0000   1.0000   1.0000   1.0000   1.0000   1.0000
     1.0000   1.0000   1.0000   1.0000   1.0000   1.0000   1.0000   1.0000
     1.0000   1.0000   1.0000   1.0000   1.0000   1.0000   1.0000   1.0000
     1.0000   1.0000   1.0000   1.0000   1.0000   1.0000   1.0000   1.0000
     1.0000   1.0000   1.0000   1.0000   1.0000   1.0000   1.0000   1.0000
     1.0000   1.0000   1.0000   1.0000   1.0000   1.0000   1.0000   1.0000
     1.0000   1.0000   1.0000   1.0000   1.0000   1.0000   1.0000   1.0000
[...]
     atom   84 type  2   force =     0.00001355    0.00007095    0.00039260
     atom   85 type  3   force =    -0.00152371    0.00001173   -0.00107950
     atom   86 type  2   force =    -0.00052108    0.00000234   -0.00003759
     atom   87 type  3   force =    -0.00135767   -0.00065719   -0.00235321
     atom   88 type  3   force =    -0.00221723    0.00364842   -0.00094356
     atom   89 type  1   force =     0.00237514    0.00403837   -0.00845993
     atom   90 type  3   force =    -0.00103274   -0.00278024    0.00263632
     atom   91 type  2   force =    -0.00014920    0.00072264    0.00015292
     atom   92 type  2   force =    -0.00001050   -0.00029815   -0.00005030
     atom   93 type  2   force =    -0.00000952    0.00038536   -0.00031636
     atom   94 type  2   force =    -0.00013047    0.00049661   -0.00054571
     atom   95 type  2   force =    -0.00028892   -0.00025781   -0.00012972
     atom   96 type  3   force =     0.00009939    0.00078748   -0.00182103
     atom   97 type  3   force =     0.00083871   -0.00063173    0.00121014
     atom   98 type  2   force =     0.00010475   -0.00009495    0.00026913
     atom   99 type  2   force =    -0.00009908   -0.00006032   -0.00014464
     atom  100 type  3   force =    -0.00053617   -0.00026855   -0.00246829
     The Hubbard contrib.    to forces
     atom    1 type  2   force =     0.00000000    0.00000000    0.00000000
     atom    2 type  3   force =     0.00000000    0.00000000    0.00000000
     atom    3 type  2   force =     0.00000000    0.00000000    0.00000000
     atom    4 type  2   force =     0.00000000    0.00000000    0.00000000
     atom    5 type  3   force =     0.00000000    0.00000000    0.00000000
     atom    6 type  2   force =     0.00000000    0.00000000    0.00000000
     atom    7 type  2   force =     0.00000000    0.00000000    0.00000000
     atom    8 type  2   force =     0.00000000    0.00000000    0.00000000
     atom    9 type  3   force =     0.00000000    0.00000000    0.00000000
     atom   10 type  2   force =     0.00000000    0.00000000    0.00000000
     atom   11 type  3   force =     0.00000000    0.00000000    0.00000000
     atom   12 type  3   force =     0.00000000    0.00000000    0.00000000
     atom   13 type  3   force =     0.00000000    0.00000000    0.00000000
     atom   14 type  3   force =     0.00000000    0.00000000    0.00000000
     atom   15 type  2   force =     0.00000000    0.00000000    0.00000000
     atom   16 type  3   force =     0.00000000    0.00000000    0.00000000
     atom   17 type  2   force =     0.00000000    0.00000000    0.00000000
     atom   18 type  2   force =     0.00000000    0.00000000    0.00000000
     atom   19 type  3   force =     0.00000000    0.00000000    0.00000000
     atom   20 type  2   force =     0.00000000    0.00000000    0.00000000
     atom   21 type  2   force =     0.00000000    0.00000000    0.00000000
     atom   22 type  2   force =     0.00000000    0.00000000    0.00000000
     atom   23 type  3   force =     0.00000000    0.00000000    0.00000000
     atom   24 type  2   force =     0.00000000    0.00000000    0.00000000
     atom   25 type  2   force =     0.00000000    0.00000000    0.00000000
     atom   26 type  3   force =     0.00000000    0.00000000    0.00000000
     atom   27 type  2   force =     0.00000000    0.00000000    0.00000000
     atom   28 type  2   force =     0.00000000    0.00000000    0.00000000
     atom   29 type  3   force =     0.00000000    0.00000000    0.00000000
     atom   30 type  2   force =     0.00000000    0.00000000    0.00000000
     atom   31 type  3   force =     0.00000000    0.00000000    0.00000000
     atom   32 type  3   force =     0.00000000    0.00000000    0.00000000
     atom   33 type  3   force =     0.00000000    0.00000000    0.00000000
     atom   34 type  1   force =     0.00000000    0.00000000    0.00000000
     atom   35 type  2   force =     0.00000000    0.00000000    0.00000000
     atom   36 type  2   force =     0.00000000    0.00000000    0.00000000
     atom   37 type  3   force =     0.00000000    0.00000000    0.00000000
     atom   38 type  3   force =     0.00000000    0.00000000    0.00000000
     atom   39 type  2   force =     0.00000000    0.00000000    0.00000000
     atom   40 type  3   force =     0.00000000    0.00000000    0.00000000
     atom   41 type  3   force =     0.00000000    0.00000000    0.00000000
     atom   42 type  3   force =     0.00000000    0.00000000    0.00000000
     atom   43 type  2   force =     0.00000000    0.00000000    0.00000000
     atom   44 type  3   force =     0.00000000    0.00000000    0.00000000
     atom   45 type  2   force =     0.00000000    0.00000000    0.00000000
     atom   46 type  3   force =     0.00000000    0.00000000    0.00000000
     atom   47 type  3   force =     0.00000000    0.00000000    0.00000000
     atom   48 type  3   force =     0.00000000    0.00000000    0.00000000
     atom   49 type  2   force =     0.00000000    0.00000000    0.00000000
     atom   50 type  3   force =     0.00000000    0.00000000    0.00000000
     atom   51 type  3   force =     0.00000000    0.00000000    0.00000000
     atom   52 type  3   force =     0.00000000    0.00000000    0.00000000
     atom   53 type  2   force =     0.00000000    0.00000000    0.00000000
     atom   54 type  3   force =     0.00000000    0.00000000    0.00000000
     atom   55 type  3   force =     0.00000000    0.00000000    0.00000000
     atom   56 type  2   force =     0.00000000    0.00000000    0.00000000
     atom   57 type  3   force =     0.00000000    0.00000000    0.00000000
     atom   58 type  2   force =     0.00000000    0.00000000    0.00000000
     atom   59 type  3   force =     0.00000000    0.00000000    0.00000000
     atom   60 type  3   force =     0.00000000    0.00000000    0.00000000
     atom   61 type  2   force =     0.00000000    0.00000000    0.00000000
     atom   62 type  3   force =     0.00000000    0.00000000    0.00000000
     atom   63 type  2   force =     0.00000000    0.00000000    0.00000000
     atom   64 type  2   force =     0.00000000    0.00000000    0.00000000
     atom   65 type  3   force =     0.00000000    0.00000000    0.00000000
     atom   66 type  2   force =     0.00000000    0.00000000    0.00000000
     atom   67 type  2   force =     0.00000000    0.00000000    0.00000000
     atom   68 type  2   force =     0.00000000    0.00000000    0.00000000
     atom   69 type  2   force =     0.00000000    0.00000000    0.00000000
     atom   70 type  3   force =     0.00000000    0.00000000    0.00000000
     atom   71 type  2   force =     0.00000000    0.00000000    0.00000000
     atom   72 type  2   force =     0.00000000    0.00000000    0.00000000
     atom   73 type  3   force =     0.00000000    0.00000000    0.00000000
     atom   74 type  2   force =     0.00000000    0.00000000    0.00000000
     atom   75 type  2   force =     0.00000000    0.00000000    0.00000000
     atom   76 type  3   force =     0.00000000    0.00000000    0.00000000
     atom   77 type  3   force =     0.00000000    0.00000000    0.00000000
     atom   78 type  2   force =     0.00000000    0.00000000    0.00000000
     atom   79 type  3   force =     0.00000000    0.00000000    0.00000000
     atom   80 type  2   force =     0.00000000    0.00000000    0.00000000
     atom   81 type  3   force =     0.00000000    0.00000000    0.00000000
     atom   82 type  3   force =     0.00000000    0.00000000    0.00000000
     atom   83 type  3   force =     0.00000000    0.00000000    0.00000000
     atom   84 type  2   force =     0.00000000    0.00000000    0.00000000
     atom   85 type  3   force =     0.00000000    0.00000000    0.00000000
     atom   86 type  2   force =     0.00000000    0.00000000    0.00000000
     atom   87 type  3   force =     0.00000000    0.00000000    0.00000000
     atom   88 type  3   force =     0.00000000    0.00000000    0.00000000
     atom   89 type  1   force =     0.00000000    0.00000000    0.00000000
     atom   90 type  3   force =     0.00000000    0.00000000    0.00000000
     atom   91 type  2   force =     0.00000000    0.00000000    0.00000000
     atom   92 type  2   force =     0.00000000    0.00000000    0.00000000
     atom   93 type  2   force =     0.00000000    0.00000000    0.00000000
     atom   94 type  2   force =     0.00000000    0.00000000    0.00000000
     atom   95 type  2   force =     0.00000000    0.00000000    0.00000000
     atom   96 type  3   force =     0.00000000    0.00000000    0.00000000
     atom   97 type  3   force =     0.00000000    0.00000000    0.00000000
     atom   98 type  2   force =     0.00000000    0.00000000    0.00000000
     atom   99 type  2   force =     0.00000000    0.00000000    0.00000000
     atom  100 type  3   force =     0.00000000    0.00000000    0.00000000
     The SCF correction term to forces
     atom    1 type  2   force =     0.00025517    0.00002489   -0.00008733
     atom    2 type  3   force =     0.00015673   -0.00052288    0.00004879
     atom    3 type  2   force =     0.00031883   -0.00057027    0.00055041
     atom    4 type  2   force =    -0.00010977   -0.00089413    0.00010891
     atom    5 type  3   force =    -0.00021347   -0.00071986   -0.00012817
     atom    6 type  2   force =    -0.00015797   -0.00095105   -0.00029792
     atom    7 type  2   force =    -0.00013316   -0.00076247   -0.00042039
     atom    8 type  2   force =    -0.00006026    0.00080900   -0.00029392
     atom    9 type  3   force =     0.00009600    0.00009255    0.00019454
     atom   10 type  2   force =     0.00018037    0.00034930    0.00042277
     atom   11 type  3   force =    -0.00000556    0.00064389   -0.00023724
     atom   12 type  3   force =     0.00001352    0.00061420    0.00042844
     atom   13 type  3   force =    -0.00016556    0.00024190   -0.00016457
     atom   14 type  3   force =    -0.00019639    0.00067692    0.00009572
     atom   15 type  2   force =    -0.00041777    0.00135441   -0.00045839
     atom   16 type  3   force =    -0.00027574    0.00002103   -0.00042581
     atom   17 type  2   force =    -0.00015671    0.00005372    0.00063658
     atom   18 type  2   force =    -0.00028443    0.00033708    0.00043732
     atom   19 type  3   force =    -0.00016188    0.00013820   -0.00004038
     atom   20 type  2   force =    -0.00047530    0.00082653    0.00009613
     atom   21 type  2   force =    -0.00047299   -0.00141772   -0.00059810
     atom   22 type  2   force =    -0.00006294   -0.00062906   -0.00001245
     atom   23 type  3   force =     0.00006511   -0.00044653    0.00029604
     atom   24 type  2   force =    -0.00055426   -0.00083298   -0.00000503
     atom   25 type  2   force =    -0.00013160   -0.00096515   -0.00000880
     atom   26 type  3   force =     0.00001279   -0.00015332    0.00010802
     atom   27 type  2   force =    -0.00005736   -0.00089702    0.00014309
     atom   28 type  2   force =     0.00003012   -0.00085904    0.00032380
     atom   29 type  3   force =    -0.00012262   -0.00011442    0.00001734
     atom   30 type  2   force =    -0.00036014   -0.00004391   -0.00012895
     atom   31 type  3   force =     0.00010667   -0.00087337   -0.00002437
     atom   32 type  3   force =     0.00000180   -0.00027924   -0.00006394
     atom   33 type  3   force =     0.00000764    0.00056162   -0.00023392
     atom   34 type  1   force =    -0.00003149    0.00010106    0.00000650
     atom   35 type  2   force =    -0.00032936    0.00013719    0.00012539
     atom   36 type  2   force =    -0.00026257    0.00082114    0.00040117
     atom   37 type  3   force =    -0.00009703    0.00064884    0.00009068
     atom   38 type  3   force =    -0.00017363    0.00078683   -0.00007813
     atom   39 type  2   force =    -0.00009683    0.00096015   -0.00048846
     atom   40 type  3   force =     0.00000063    0.00032644    0.00015882
     atom   41 type  3   force =    -0.00007252    0.00058053    0.00024987
     atom   42 type  3   force =    -0.00011810    0.00018526    0.00023663
     atom   43 type  2   force =     0.00022479    0.00100007    0.00033268
     atom   44 type  3   force =     0.00008625    0.00022973   -0.00028285
     atom   45 type  2   force =     0.00011777   -0.00017481   -0.00045431
     atom   46 type  3   force =     0.00012169   -0.00059536   -0.00015938
     atom   47 type  3   force =    -0.00003643   -0.00006817    0.00020493
     atom   48 type  3   force =    -0.00005231   -0.00064016   -0.00004598
     atom   49 type  2   force =     0.00015815   -0.00077934    0.00000440
     atom   50 type  3   force =    -0.00005588   -0.00072427   -0.00019426
     atom   51 type  3   force =     0.00007324   -0.00039989   -0.00007882
     atom   52 type  3   force =    -0.00009500   -0.00058457   -0.00008169
     atom   53 type  2   force =    -0.00028109   -0.00078159    0.00013543
     atom   54 type  3   force =    -0.00001908   -0.00037723   -0.00008292
     atom   55 type  3   force =     0.00027647   -0.00055726    0.00001528
     atom   56 type  2   force =     0.00035814    0.00107488   -0.00079813
     atom   57 type  3   force =    -0.00006748    0.00016721   -0.00003730
     atom   58 type  2   force =     0.00013267    0.00083784    0.00041666
     atom   59 type  3   force =     0.00026993    0.00065864    0.00014661
     atom   60 type  3   force =     0.00025412    0.00066366   -0.00020578
     atom   61 type  2   force =     0.00015076    0.00062985    0.00007818
     atom   62 type  3   force =    -0.00001950    0.00041644   -0.00021956
     atom   63 type  2   force =     0.00022055    0.00108836    0.00050073
     atom   64 type  2   force =     0.00016998    0.00030117    0.00053858
     atom   65 type  3   force =     0.00029184    0.00077263    0.00041408
     atom   66 type  2   force =     0.00052431    0.00168764   -0.00009944
     atom   67 type  2   force =     0.00056174    0.00113638   -0.00088702
     atom   68 type  2   force =     0.00039258   -0.00027892   -0.00092678
     atom   69 type  2   force =    -0.00003858   -0.00048798   -0.00003380
     atom   70 type  3   force =    -0.00003686   -0.00063586    0.00019269
     atom   71 type  2   force =     0.00027798   -0.00012521    0.00052039
     atom   72 type  2   force =     0.00034810   -0.00164194    0.00017487
     atom   73 type  3   force =     0.00036353   -0.00022302    0.00000213
     atom   74 type  2   force =     0.00036948   -0.00165380   -0.00034624
     atom   75 type  2   force =    -0.00007115    0.00017251   -0.00050946
     atom   76 type  3   force =    -0.00007609   -0.00063490   -0.00009069
     atom   77 type  3   force =     0.00002978   -0.00015770    0.00025902
     atom   78 type  2   force =     0.00009758   -0.00101293    0.00065129
     atom   79 type  3   force =     0.00012335   -0.00074213    0.00022797
     atom   80 type  2   force =     0.00007469    0.00010247   -0.00015072
     atom   81 type  3   force =    -0.00010896   -0.00068068   -0.00029867
     atom   82 type  3   force =    -0.00011879    0.00042826   -0.00038792
     atom   83 type  3   force =     0.00003495    0.00066534   -0.00012326
     atom   84 type  2   force =     0.00022854    0.00134513    0.00077245
     atom   85 type  3   force =     0.00005046    0.00022178    0.00026387
     atom   86 type  2   force =    -0.00020729    0.00138872   -0.00014989
     atom   87 type  3   force =    -0.00006342    0.00080591   -0.00059790
     atom   88 type  3   force =     0.00014903    0.00026380   -0.00034800
     atom   89 type  1   force =    -0.00001840    0.00007618   -0.00001786
     atom   90 type  3   force =     0.00003848    0.00040219    0.00050507
     atom   91 type  2   force =    -0.00003457    0.00127257    0.00046419
     atom   92 type  2   force =    -0.00021310    0.00009919    0.00053657
     atom   93 type  2   force =     0.00031840    0.00155951   -0.00004595
     atom   94 type  2   force =    -0.00030872   -0.00069178   -0.00088596
     atom   95 type  2   force =    -0.00000687   -0.00114550   -0.00079969
     atom   96 type  3   force =    -0.00004757   -0.00048090    0.00029384
     atom   97 type  3   force =    -0.00015648   -0.00056139    0.00025894
     atom   98 type  2   force =     0.00022523   -0.00075004    0.00066590
     atom   99 type  2   force =     0.00005099   -0.00173068    0.00021644
     atom  100 type  3   force =    -0.00007917   -0.00038264   -0.00031821

     Total force =     0.844170     Total SCF correction =     0.008583

     Writing output data file Zr49Cu49Al2.save
 
     init_run     :     29.76s CPU     30.40s WALL (       1 calls)
     electrons    :   4679.44s CPU   4764.03s WALL (       1 calls)
     forces       :     19.93s CPU     20.48s WALL (       1 calls)

     Called by init_run:
     wfcinit      :     23.90s CPU     24.19s WALL (       1 calls)
     wfcinit:atom :      0.04s CPU      0.07s WALL (       1 calls)
     wfcinit:wfcr :     23.65s CPU     23.86s WALL (       1 calls)
     potinit      :      1.30s CPU      1.35s WALL (       1 calls)

     Called by electrons:
     c_bands      :   4071.68s CPU   4125.44s WALL (      51 calls)
     sum_band     :    510.15s CPU    526.53s WALL (      51 calls)
     v_of_rho     :     15.78s CPU     16.24s WALL (      52 calls)
     v_h          :      1.48s CPU      1.53s WALL (      52 calls)
     v_xc         :     14.58s CPU     15.00s WALL (      53 calls)
     newd         :     65.85s CPU     78.80s WALL (      52 calls)
     PAW_pot      :      9.13s CPU      9.50s WALL (      52 calls)
     mix_rho      :      4.09s CPU      4.28s WALL (      51 calls)

     Called by c_bands:
     init_us_2    :      6.98s CPU      7.05s WALL (     103 calls)
     cegterg      :   3792.72s CPU   3839.18s WALL (      51 calls)

     Called by sum_band:
     sum_band:bec :      1.44s CPU      1.45s WALL (      51 calls)
     addusdens    :     81.28s CPU     94.64s WALL (      51 calls)

     Called by *egterg:
     h_psi        :   1419.79s CPU   1430.09s WALL (     136 calls)
     s_psi        :    345.59s CPU    347.20s WALL (     136 calls)
     g_psi        :      2.08s CPU      2.09s WALL (      84 calls)
     cdiaghg      :   1039.08s CPU   1054.14s WALL (     135 calls)
     cegterg:over :    408.45s CPU    412.02s WALL (      84 calls)
     cegterg:upda :    234.64s CPU    235.68s WALL (      84 calls)
     cegterg:last :    205.38s CPU    205.48s WALL (      51 calls)
     cdiaghg:chol :     51.30s CPU     51.78s WALL (     135 calls)
     cdiaghg:inve :     61.80s CPU     62.19s WALL (     135 calls)
     cdiaghg:para :    153.11s CPU    159.49s WALL (     270 calls)

     Called by h_psi:
     h_psi:pot    :   1412.70s CPU   1422.99s WALL (     136 calls)
     h_psi:calbec :    332.03s CPU    333.23s WALL (     136 calls)
     vloc_psi     :    734.84s CPU    742.12s WALL (     136 calls)
     add_vuspsi   :    345.83s CPU    347.63s WALL (     136 calls)

     General routines
     calbec       :    503.11s CPU    505.18s WALL (     191 calls)
     fft          :     19.06s CPU     20.21s WALL (     839 calls)
     ffts         :      0.43s CPU      0.44s WALL (     103 calls)
     fftw         :    670.79s CPU    677.12s WALL (  285812 calls)
     interpolate  :      3.16s CPU      3.35s WALL (     103 calls)
 
     Parallel routines
     fft_scatt_xy :     56.19s CPU     56.98s WALL (  286754 calls)
     fft_scatt_yz :    132.28s CPU    134.42s WALL (  286754 calls)

     PAW routines
     PAW_pot      :      9.13s CPU      9.50s WALL (      52 calls)
 
     PWSCF        :     1h18m CPU        1h25m WALL

 
   This run was terminated on:  18:55:55  19Apr2019            

=------------------------------------------------------------------------------=
   JOB DONE.
=------------------------------------------------------------------------------=
