
     Program PWSCF v.6.2 (svn rev. 13949:13950) starts on 19Apr2019 at 16:54:37 

     This program is part of the open-source Quantum ESPRESSO suite
     for quantum simulation of materials; please cite
         "P. Giannozzi et al., J. Phys.:Condens. Matter 21 395502 (2009);
         "P. Giannozzi et al., J. Phys.:Condens. Matter 29 465901 (2017);
          URL http://www.quantum-espresso.org", 
     in publications or presentations arising from this work. More details at
     http://www.quantum-espresso.org/quote

     Parallel version (MPI & OpenMP), running on     192 processor cores
     Number of MPI processes:               192
     Threads/MPI process:                     1

     MPI processes distributed on     8 nodes
     K-points division:     npool     =       8
     R & G space division:  proc/nbgrp/npool/nimage =      24
     Waiting for input...
     Reading input from standard input

     Current dimensions of program PWSCF are:
     Max number of different atomic species (ntypx) = 10
     Max number of k-points (npk) =  40000
     Max angular momentum in pseudopotentials (lmaxx) =  3
               file Al.aryjr-1.0.0-ld1.UPF: wavefunction(s)  3S 3P renormalized
               file Cu.aryjr-1.0.0-ld1.UPF: wavefunction(s)  4S 3P 3D renormalized
               file Zr.aryjr-1.0.0-ld1.UPF: wavefunction(s)  4S 4P renormalized

     Subspace diagonalization in iterative solution of the eigenvalue problem:
     one sub-group per band group will be used
     scalapack distributed-memory algorithm (size of sub-group:  3*  3 procs)

 
     Parallelization info
     --------------------
     sticks:   dense  smooth     PW     G-vecs:    dense   smooth      PW
     Min         959     479    123               109501    38711    5087
     Max         960     480    124               109504    38714    5092
     Sum       23035   11517   2975              2628049   929093  122183
 

     Title: 
     Zr49Cu49Al2                                                                


     bravais-lattice index     =            0
     lattice parameter (alat)  =      25.4134  a.u.
     unit-cell volume          =   11744.1708 (a.u.)^3
     number of atoms/cell      =          100
     number of atomic types    =            3
     number of electrons       =      1525.00
     number of Kohn-Sham states=         1086
     kinetic-energy cutoff     =      70.0000  Ry
     charge density cutoff     =     560.0000  Ry
     convergence threshold     =      1.0E-06
     mixing beta               =       0.4000
     number of iterations used =            8  plain     mixing
     Exchange-correlation      =  SLA  PW   PBX  PBC ( 1  4  3  4 0 0)

     celldm(1)=  25.413382  celldm(2)=   0.000000  celldm(3)=   0.000000
     celldm(4)=   0.000000  celldm(5)=   0.000000  celldm(6)=   0.000000

     crystal axes: (cart. coord. in units of alat)
               a(1) = (   0.894427   0.447214   0.000000 )  
               a(2) = (   0.000000   0.894427   0.000000 )  
               a(3) = (   0.000000   0.000000   0.894427 )  

     reciprocal axes: (cart. coord. in units 2 pi/alat)
               b(1) = (  1.118034  0.000000  0.000000 )  
               b(2) = ( -0.559017  1.118034  0.000000 )  
               b(3) = (  0.000000  0.000000  1.118034 )  


     PseudoPot. # 1 for Al read from file:
     /scratch/rmnvm/ary.junior/UPFs/Al.aryjr-1.0.0-ld1.UPF
     MD5 check sum: 23518be3108914e66f28d0b5ae5ea896
     Pseudo is Projector augmented-wave + core cor, Zval =  3.0
     Generated using "atomic" code by A. Dal Corso  v.5.3.0 svn rev. 11974
     Shape of augmentation charge: PSQ
     Using radial grid of 1135 points,  4 beta functions with: 
                l(1) =   0
                l(2) =   0
                l(3) =   1
                l(4) =   1
     Q(r) pseudized with 0 coefficients 


     PseudoPot. # 2 for Cu read from file:
     /scratch/rmnvm/ary.junior/UPFs/Cu.aryjr-1.0.0-ld1.UPF
     MD5 check sum: 9308548b6d8348cb0f7fa79efd90ef1e
     Pseudo is Projector augmented-wave + core cor, Zval = 19.0
     Generated using "atomic" code by A. Dal Corso  v.5.3.0 svn rev. 11974
     Shape of augmentation charge: PSQ
     Using radial grid of 1199 points,  6 beta functions with: 
                l(1) =   0
                l(2) =   0
                l(3) =   1
                l(4) =   1
                l(5) =   2
                l(6) =   2
     Q(r) pseudized with 0 coefficients 


     PseudoPot. # 3 for Zr read from file:
     /scratch/rmnvm/ary.junior/UPFs/Zr.aryjr-1.0.0-ld1.UPF
     MD5 check sum: 20f111a850f3481eb9ed9a4dbb9cca44
     Pseudo is Projector augmented-wave + core cor, Zval = 12.0
     Generated using "atomic" code by A. Dal Corso  v.5.3.0 svn rev. 11974
     Shape of augmentation charge: PSQ
     Using radial grid of 1225 points,  6 beta functions with: 
                l(1) =   0
                l(2) =   0
                l(3) =   1
                l(4) =   1
                l(5) =   2
                l(6) =   2
     Q(r) pseudized with 0 coefficients 


     atomic species   valence    mass     pseudopotential
        Al             3.00    26.98150     Al( 1.00)
        Cu            19.00    63.54630     Cu( 1.00)
        Zr            12.00    91.22400     Zr( 1.00)

     No symmetry found


                                    s                        frac. trans.

      isym =  1     identity                                     

 cryst.   s( 1) = (     1          0          0      )
                  (     0          1          0      )
                  (     0          0          1      )

 cart.    s( 1) = (  1.0000000  0.0000000  0.0000000 )
                  (  0.0000000  1.0000000  0.0000000 )
                  (  0.0000000  0.0000000  1.0000000 )


   Cartesian axes

     site n.     atom                  positions (alat units)
         1           Cu  tau(   1) = (   0.1370745   0.2722511   0.1402328  )
         2           Zr  tau(   2) = (   0.2354535   0.1007264   0.1599263  )
         3           Cu  tau(   3) = (   0.1583673   0.1968563   0.3017574  )
         4           Cu  tau(   4) = (   0.0931099   0.1012161   0.5289526  )
         5           Zr  tau(   5) = (   0.0160147   0.0372721   0.7116957  )
         6           Cu  tau(   6) = (   0.2328444   0.1751271   0.6643993  )
         7           Cu  tau(   7) = (   0.1053412   0.1442340   0.8821163  )
         8           Cu  tau(   8) = (   0.2332308   0.4341219   0.0410855  )
         9           Zr  tau(   9) = (  -0.0118529   0.2371547   0.2741554  )
        10           Cu  tau(  10) = (   0.1954950   0.3916205   0.3012726  )
        11           Zr  tau(  11) = (   0.1030595   0.4718425   0.1469928  )
        12           Zr  tau(  12) = (   0.0550108   0.4704490   0.3885311  )
        13           Zr  tau(  13) = (   0.1239130   0.2876393   0.7213681  )
        14           Zr  tau(  14) = (   0.1584952   0.4912172   0.5921958  )
        15           Cu  tau(  15) = (   0.1020139   0.4798758   0.8323879  )
        16           Zr  tau(  16) = (   0.1054512   0.6785983   0.0154342  )
        17           Cu  tau(  17) = (   0.0693396   0.6897778   0.3749188  )
        18           Cu  tau(  18) = (   0.0533070   0.6215987   0.5484869  )
        19           Zr  tau(  19) = (   0.2019956   0.7035868   0.7028373  )
        20           Cu  tau(  20) = (  -0.0081527   0.5416933   0.7224959  )
        21           Cu  tau(  21) = (   0.0368334   0.8423523  -0.0180844  )
        22           Cu  tau(  22) = (   0.1056784   0.7890002   0.2001299  )
        23           Zr  tau(  23) = (   0.1576482   0.9061809   0.3853541  )
        24           Cu  tau(  24) = (   0.0421069   0.7402892   0.7116322  )
        25           Cu  tau(  25) = (   0.1726218   0.8698640   0.5996714  )
        26           Zr  tau(  26) = (   0.3373359   0.3686601   0.1882921  )
        27           Cu  tau(  27) = (   0.4499309   0.2581147   0.2130803  )
        28           Cu  tau(  28) = (   0.3280356   0.2243970   0.3438008  )
        29           Zr  tau(  29) = (   0.2377906   0.3146836   0.4880326  )
        30           Cu  tau(  30) = (   0.3334103   0.3696954   0.6745287  )
        31           Zr  tau(  31) = (   0.4390752   0.2433786   0.7347728  )
        32           Zr  tau(  32) = (   0.2991304   0.2871809   0.8725638  )
        33           Zr  tau(  33) = (   0.4481357   0.5976451   0.0318577  )
        34           Al  tau(  34) = (   0.3480449   0.5801970   0.2242275  )
        35           Cu  tau(  35) = (   0.3819311   0.4856793   0.3739797  )
        36           Cu  tau(  36) = (   0.2515934   0.5538857   0.4067148  )
        37           Zr  tau(  37) = (   0.3963404   0.5750773   0.5636036  )
        38           Zr  tau(  38) = (   0.2979239   0.5553548   0.7590136  )
        39           Cu  tau(  39) = (   0.2827311   0.6294518   0.0663987  )
        40           Zr  tau(  40) = (   0.2286165   0.6900170   0.2699623  )
        41           Zr  tau(  41) = (   0.4281596   0.7306938   0.3928440  )
        42           Zr  tau(  42) = (   0.2510237   0.7473337   0.4952336  )
        43           Cu  tau(  43) = (   0.4061576   0.7701251   0.6205455  )
        44           Zr  tau(  44) = (   0.3848345   0.8090559   0.8399145  )
        45           Cu  tau(  45) = (   0.2883240   0.8292011   0.0955919  )
        46           Zr  tau(  46) = (   0.4262965   1.0470496   0.0469494  )
        47           Zr  tau(  47) = (   0.3698966   0.9255886   0.3055149  )
        48           Zr  tau(  48) = (   0.3508409   1.0411929   0.5235395  )
        49           Cu  tau(  49) = (   0.3577700   0.9120541   0.6763596  )
        50           Zr  tau(  50) = (   0.2229503   0.9234075   0.8149860  )
        51           Zr  tau(  51) = (   0.5328219   0.4132026   0.0444289  )
        52           Zr  tau(  52) = (   0.6775760   0.4100738   0.2096430  )
        53           Cu  tau(  53) = (   0.4839289   0.3965403   0.3277101  )
        54           Zr  tau(  54) = (   0.4791661   0.4022999   0.5358630  )
        55           Zr  tau(  55) = (   0.6204149   0.4312754   0.7155274  )
        56           Cu  tau(  56) = (   0.6258289   0.7546515   0.1105736  )
        57           Zr  tau(  57) = (   0.5504645   0.5879383   0.2333265  )
        58           Cu  tau(  58) = (   0.5513124   0.6181422   0.4382318  )
        59           Zr  tau(  59) = (   0.6624477   0.6376358   0.6035926  )
        60           Zr  tau(  60) = (   0.6629924   0.6513165   0.8386650  )
        61           Cu  tau(  61) = (   0.4786053   0.5025630   0.7440749  )
        62           Zr  tau(  62) = (   0.4668284   0.8239714   0.1612455  )
        63           Cu  tau(  63) = (   0.6050228   0.7875288   0.3141023  )
        64           Cu  tau(  64) = (   0.5830664   0.9615325   0.3409521  )
        65           Zr  tau(  65) = (   0.5980113   0.8169631   0.5540574  )
        66           Cu  tau(  66) = (   0.5123190   0.7105911   0.7314715  )
        67           Cu  tau(  67) = (   0.5941832   0.8416108   0.8672616  )
        68           Cu  tau(  68) = (   0.5771765   0.9961428   0.0258123  )
        69           Cu  tau(  69) = (   0.5696768   1.0780486   0.2146724  )
        70           Zr  tau(  70) = (   0.5637807   1.1548495   0.3933235  )
        71           Cu  tau(  71) = (   0.4736037   0.9339980   0.5183259  )
        72           Cu  tau(  72) = (   0.5583596   1.1388558   0.5834331  )
        73           Zr  tau(  73) = (   0.5603202   0.9650373   0.7028498  )
        74           Cu  tau(  74) = (   0.6141790   1.1592380   0.8371883  )
        75           Cu  tau(  75) = (   0.7138191   0.5972564   0.1161378  )
        76           Zr  tau(  76) = (   0.9044269   0.4785615   0.1691424  )
        77           Zr  tau(  77) = (   0.6864165   0.5445054   0.3846913  )
        78           Cu  tau(  78) = (   0.8679888   0.5127201   0.3896644  )
        79           Zr  tau(  79) = (   0.7364481   0.4330611   0.5382672  )
        80           Cu  tau(  80) = (   0.7990947   0.5960601   0.7156652  )
        81           Zr  tau(  81) = (   0.7769934   0.4644988   0.8742963  )
        82           Zr  tau(  82) = (   0.8928924   0.7095026   0.0313076  )
        83           Zr  tau(  83) = (   0.7706823   0.7976551   0.2254073  )
        84           Cu  tau(  84) = (   0.7274314   0.7528792   0.4285702  )
        85           Zr  tau(  85) = (   0.8927868   0.6926131   0.5193071  )
        86           Cu  tau(  86) = (   0.8726828   0.7975504   0.7312390  )
        87           Zr  tau(  87) = (   0.8169215   0.8990138   0.0222525  )
        88           Zr  tau(  88) = (   0.6934870   0.9714535   0.1713758  )
        89           Al  tau(  89) = (   0.8988009   1.0351385   0.2215764  )
        90           Zr  tau(  90) = (   0.7725042   0.9709562   0.4127173  )
        91           Cu  tau(  91) = (   0.8263872   0.8587391   0.5742732  )
        92           Cu  tau(  92) = (   0.7588356   1.0214698   0.6271741  )
        93           Cu  tau(  93) = (   0.7010529   0.8478530   0.7334115  )
        94           Cu  tau(  94) = (   0.8489635   1.1411648   0.1139250  )
        95           Cu  tau(  95) = (   0.7120240   1.1700552   0.0895554  )
        96           Zr  tau(  96) = (   0.7888901   1.1751933   0.3083770  )
        97           Zr  tau(  97) = (   0.8726094   1.2176647   0.5236692  )
        98           Cu  tau(  98) = (   0.6652875   1.0696598   0.5118100  )
        99           Cu  tau(  99) = (   0.7188028   1.1794212   0.6810195  )
       100           Zr  tau( 100) = (   0.7669275   1.0790133   0.8187792  )

   Crystallographic axes

     site n.     atom                  positions (cryst. coord.)
         1           Cu  tau(   1) = (  0.1532540  0.2277590  0.1567850  )
         2           Zr  tau(   2) = (  0.2632450 -0.0190070  0.1788030  )
         3           Cu  tau(   3) = (  0.1770600  0.1315620  0.3373750  )
         4           Cu  tau(   4) = (  0.1041000  0.0611130  0.5913870  )
         5           Zr  tau(   5) = (  0.0179050  0.0327190  0.7957000  )
         6           Cu  tau(   6) = (  0.2603280  0.0656340  0.7428210  )
         7           Cu  tau(   7) = (  0.1177750  0.1023710  0.9862360  )
         8           Cu  tau(   8) = (  0.2607600  0.3549830  0.0459350  )
         9           Zr  tau(   9) = ( -0.0132520  0.2717730  0.3065150  )
        10           Cu  tau(  10) = (  0.2185700  0.3285600  0.3368330  )
        11           Zr  tau(  11) = (  0.1152240  0.4699240  0.1643430  )
        12           Zr  tau(  12) = (  0.0615040  0.4952260  0.4343910  )
        13           Zr  tau(  13) = (  0.1385390  0.2523210  0.8065140  )
        14           Zr  tau(  14) = (  0.1772030  0.4605960  0.6620950  )
        15           Cu  tau(  15) = (  0.1140550  0.4794900  0.9306380  )
        16           Zr  tau(  16) = (  0.1178980  0.6997470  0.0172560  )
        17           Cu  tau(  17) = (  0.0775240  0.7324330  0.4191720  )
        18           Cu  tau(  18) = (  0.0595990  0.6651690  0.6132270  )
        19           Zr  tau(  19) = (  0.2258380  0.6737150  0.7857960  )
        20           Cu  tau(  20) = ( -0.0091150  0.6101890  0.8077750  )
        21           Cu  tau(  21) = (  0.0411810  0.9211880 -0.0202190  )
        22           Cu  tau(  22) = (  0.1181520  0.8230530  0.2237520  )
        23           Zr  tau(  23) = (  0.1762560  0.9250130  0.4308390  )
        24           Cu  tau(  24) = (  0.0470770  0.8041300  0.7956290  )
        25           Cu  tau(  25) = (  0.1929970  0.8760390  0.6704530  )
        26           Zr  tau(  26) = (  0.3771530  0.2235980  0.2105170  )
        27           Cu  tau(  27) = (  0.5030380  0.0370620  0.2382310  )
        28           Cu  tau(  28) = (  0.3667550  0.0675060  0.3843810  )
        29           Zr  tau(  29) = (  0.2658580  0.2188980  0.5456370  )
        30           Cu  tau(  30) = (  0.3727640  0.2269500  0.7541460  )
        31           Zr  tau(  31) = (  0.4909010  0.0266550  0.8215010  )
        32           Zr  tau(  32) = (  0.3344380  0.1538590  0.9755560  )
        33           Zr  tau(  33) = (  0.5010310  0.4176720  0.0356180  )
        34           Al  tau(  34) = (  0.3891260  0.4541170  0.2506940  )
        35           Cu  tau(  35) = (  0.4270120  0.3295000  0.4181220  )
        36           Cu  tau(  36) = (  0.2812900  0.4786180  0.4547210  )
        37           Zr  tau(  37) = (  0.4431220  0.4213950  0.6301280  )
        38           Zr  tau(  38) = (  0.3330890  0.4543610  0.8486030  )
        39           Cu  tau(  39) = (  0.3161030  0.5456970  0.0742360  )
        40           Zr  tau(  40) = (  0.2556010  0.6436620  0.3018270  )
        41           Zr  tau(  41) = (  0.4786970  0.5775920  0.4392130  )
        42           Zr  tau(  42) = (  0.2806530  0.6952180  0.5536880  )
        43           Cu  tau(  43) = (  0.4540980  0.6339770  0.6937910  )
        44           Zr  tau(  44) = (  0.4302580  0.6894230  0.9390530  )
        45           Cu  tau(  45) = (  0.3223560  0.7658970  0.1068750  )
        46           Zr  tau(  46) = (  0.4766140  0.9323300  0.0524910  )
        47           Zr  tau(  47) = (  0.4135570  0.8280610  0.3415760  )
        48           Zr  tau(  48) = (  0.3922520  0.9679630  0.5853350  )
        49           Cu  tau(  49) = (  0.3999990  0.8197080  0.7561930  )
        50           Zr  tau(  50) = (  0.2492660  0.9077680  0.9111820  )
        51           Zr  tau(  51) = (  0.5957130  0.1641180  0.0496730  )
        52           Zr  tau(  52) = (  0.7575530  0.0797000  0.2343880  )
        53           Cu  tau(  53) = (  0.5410490  0.1728210  0.3663910  )
        54           Zr  tau(  54) = (  0.5357240  0.1819230  0.5991130  )
        55           Zr  tau(  55) = (  0.6936450  0.1353580  0.7999840  )
        56           Cu  tau(  56) = (  0.6996980  0.4938770  0.1236250  )
        57           Zr  tau(  57) = (  0.6154380  0.3496160  0.2608670  )
        58           Cu  tau(  58) = (  0.6163860  0.3829110  0.4899580  )
        59           Zr  tau(  59) = (  0.7406390  0.3425790  0.6748370  )
        60           Zr  tau(  60) = (  0.7412480  0.3575700  0.9376560  )
        61           Cu  tau(  61) = (  0.5350970  0.2943340  0.8319010  )
        62           Zr  tau(  62) = (  0.5219300  0.6602630  0.1802780  )
        63           Cu  tau(  63) = (  0.6764360  0.5422660  0.3511770  )
        64           Cu  tau(  64) = (  0.6518880  0.7490820  0.3811960  )
        65           Zr  tau(  65) = (  0.6685970  0.5790940  0.6194550  )
        66           Cu  tau(  66) = (  0.5727900  0.5080700  0.8178100  )
        67           Cu  tau(  67) = (  0.6643170  0.6087910  0.9696280  )
        68           Cu  tau(  68) = (  0.6453030  0.7910700  0.0288590  )
        69           Cu  tau(  69) = (  0.6369180  0.8868360  0.2400110  )
        70           Zr  tau(  70) = (  0.6303260  0.9759980  0.4397490  )
        71           Cu  tau(  71) = (  0.5295050  0.7794890  0.5795060  )
        72           Cu  tau(  72) = (  0.6242650  0.9611470  0.6522980  )
        73           Zr  tau(  73) = (  0.6264570  0.7657160  0.7858100  )
        74           Cu  tau(  74) = (  0.6866730  0.9527310  0.9360050  )
        75           Cu  tau(  75) = (  0.7980740  0.2687160  0.1298460  )
        76           Zr  tau(  76) = (  1.0111800  0.0294580  0.1891070  )
        77           Zr  tau(  77) = (  0.7674370  0.2250570  0.4300980  )
        78           Cu  tau(  78) = (  0.9704410  0.0880180  0.4356580  )
        79           Zr  tau(  79) = (  0.8233740  0.0724900  0.6018010  )
        80           Cu  tau(  80) = (  0.8934150  0.2197080  0.8001380  )
        81           Zr  tau(  81) = (  0.8687050  0.0849730  0.9774930  )
        82           Zr  tau(  82) = (  0.9982840  0.2941060  0.0350030  )
        83           Zr  tau(  83) = (  0.8616490  0.4609810  0.2520130  )
        84           Cu  tau(  84) = (  0.8132930  0.4350980  0.4791560  )
        85           Zr  tau(  85) = (  0.9981660  0.2752820  0.5806030  )
        86           Cu  tau(  86) = (  0.9756890  0.4038440  0.8175500  )
        87           Zr  tau(  87) = (  0.9133460  0.5484550  0.0248790  )
        88           Zr  tau(  88) = (  0.7753420  0.6984470  0.1916040  )
        89           Al  tau(  89) = (  1.0048900  0.6548750  0.2477300  )
        90           Zr  tau(  90) = (  0.8636860  0.6537190  0.4614320  )
        91           Cu  tau(  91) = (  0.9239290  0.4981350  0.6420570  )
        92           Cu  tau(  92) = (  0.8484040  0.7178360  0.7012020  )
        93           Cu  tau(  93) = (  0.7838010  0.5560280  0.8199790  )
        94           Cu  tau(  94) = (  0.9491700  0.8012760  0.1273720  )
        95           Cu  tau(  95) = (  0.7960670  0.9101280  0.1001260  )
        96           Zr  tau(  96) = (  0.8820060  0.8729030  0.3447760  )
        97           Zr  tau(  97) = (  0.9756070  0.8735870  0.5854800  )
        98           Cu  tau(  98) = (  0.7438140  0.8240090  0.5722210  )
        99           Cu  tau(  99) = (  0.8036460  0.9168100  0.7614030  )
       100           Zr  tau( 100) = (  0.8574510  0.7776480  0.9154230  )

     number of k points=     8  Fermi-Dirac smearing, width (Ry)=  0.0080
                       cart. coord. in units 2pi/alat
        k(    1) = (   0.1397542   0.2795085   0.2795085), wk =   0.2500000
        k(    2) = (   0.1397542   0.2795085  -0.2795085), wk =   0.2500000
        k(    3) = (   0.4192627  -0.2795085   0.2795085), wk =   0.2500000
        k(    4) = (   0.4192627  -0.2795085  -0.2795085), wk =   0.2500000
        k(    5) = (  -0.4192627   0.2795085   0.2795085), wk =   0.2500000
        k(    6) = (  -0.4192627   0.2795085  -0.2795085), wk =   0.2500000
        k(    7) = (  -0.1397542  -0.2795085   0.2795085), wk =   0.2500000
        k(    8) = (  -0.1397542  -0.2795085  -0.2795085), wk =   0.2500000

                       cryst. coord.
        k(    1) = (   0.2500000   0.2500000   0.2500000), wk =   0.2500000
        k(    2) = (   0.2500000   0.2500000  -0.2500000), wk =   0.2500000
        k(    3) = (   0.2500000  -0.2500000   0.2500000), wk =   0.2500000
        k(    4) = (   0.2500000  -0.2500000  -0.2500000), wk =   0.2500000
        k(    5) = (  -0.2500000   0.2500000   0.2500000), wk =   0.2500000
        k(    6) = (  -0.2500000   0.2500000  -0.2500000), wk =   0.2500000
        k(    7) = (  -0.2500000  -0.2500000   0.2500000), wk =   0.2500000
        k(    8) = (  -0.2500000  -0.2500000  -0.2500000), wk =   0.2500000

     Dense  grid:  2628049 G-vectors     FFT dimensions: ( 192, 180, 180)

     Smooth grid:   929093 G-vectors     FFT dimensions: ( 135, 125, 125)

     Dynamical RAM for                 wfc:      80.19 MB

     Dynamical RAM for     wfc (w. buffer):      80.19 MB

     Dynamical RAM for           str. fact:       5.01 MB

     Dynamical RAM for           local pot:       0.00 MB

     Dynamical RAM for          nlocal pot:     131.43 MB

     Dynamical RAM for                qrad:      23.01 MB

     Dynamical RAM for          rho,v,vnew:      11.34 MB

     Dynamical RAM for               rhoin:       3.78 MB

     Dynamical RAM for            rho*nmix:      26.73 MB

     Dynamical RAM for           G-vectors:       6.56 MB

     Dynamical RAM for          h,s,v(r/c):      95.98 MB

     Dynamical RAM for          <psi|beta>:      29.50 MB

     Dynamical RAM for                 psi:     320.75 MB

     Dynamical RAM for                hpsi:     320.75 MB

     Dynamical RAM for                spsi:     320.75 MB

     Dynamical RAM for      wfcinit/wfcrot:     197.10 MB

     Dynamical RAM for           addusdens:     392.66 MB

     Dynamical RAM for          addusforce:     809.94 MB

     Estimated static dynamical RAM per process >     305.29 MB

     Estimated max dynamical RAM per process >       1.36 GB

     Estimated total dynamical RAM >     261.19 GB

     Initial potential from superposition of free atoms

     starting charge 1524.87645, renormalised to 1525.00000
     Starting wfc are 1135 randomized atomic wfcs
     Checking if some PAW data can be deallocated... 
       PAW data deallocated on  188 nodes for type:  1
       PAW data deallocated on   99 nodes for type:  2
       PAW data deallocated on   97 nodes for type:  3

     total cpu time spent up to now is       40.8 secs

     Self-consistent Calculation

     iteration #  1     ecut=    70.00 Ry     beta= 0.40
     Davidson diagonalization with overlap
     ethr =  1.00E-02,  avg # of iterations =  4.0

     total cpu time spent up to now is      256.5 secs

     total energy              =  -38857.42967332 Ry
     Harris-Foulkes estimate   =  -38997.59391513 Ry
     estimated scf accuracy    <     227.90291670 Ry

     iteration #  2     ecut=    70.00 Ry     beta= 0.40
     Davidson diagonalization with overlap
     ethr =  1.00E-02,  avg # of iterations =  3.0

     total cpu time spent up to now is      482.9 secs

     total energy              =  -38888.89814991 Ry
     Harris-Foulkes estimate   =  -39151.15713338 Ry
     estimated scf accuracy    <    1307.96350985 Ry

     iteration #  3     ecut=    70.00 Ry     beta= 0.40
     Davidson diagonalization with overlap
     ethr =  1.00E-02,  avg # of iterations =  3.0

     total cpu time spent up to now is      651.9 secs

     total energy              =  -38956.75825516 Ry
     Harris-Foulkes estimate   =  -39048.64853426 Ry
     estimated scf accuracy    <     638.00853745 Ry

     iteration #  4     ecut=    70.00 Ry     beta= 0.40
     Davidson diagonalization with overlap
     ethr =  1.00E-02,  avg # of iterations =  3.0

     total cpu time spent up to now is      788.0 secs

     total energy              =  -38982.41012734 Ry
     Harris-Foulkes estimate   =  -39008.41506388 Ry
     estimated scf accuracy    <     231.01379078 Ry

     iteration #  5     ecut=    70.00 Ry     beta= 0.40
     Davidson diagonalization with overlap
     ethr =  1.00E-02,  avg # of iterations =  2.0

     total cpu time spent up to now is      901.9 secs

     total energy              =  -38988.04775057 Ry
     Harris-Foulkes estimate   =  -38996.31000723 Ry
     estimated scf accuracy    <     105.86763248 Ry

     iteration #  6     ecut=    70.00 Ry     beta= 0.40
     Davidson diagonalization with overlap
     ethr =  6.94E-03,  avg # of iterations =  1.0

     total cpu time spent up to now is     1004.3 secs

     total energy              =  -38988.19015416 Ry
     Harris-Foulkes estimate   =  -38991.51252892 Ry
     estimated scf accuracy    <      36.97317182 Ry

     iteration #  7     ecut=    70.00 Ry     beta= 0.40
     Davidson diagonalization with overlap
     ethr =  2.42E-03,  avg # of iterations =  1.0

     total cpu time spent up to now is     1106.9 secs

     total energy              =  -38986.86621371 Ry
     Harris-Foulkes estimate   =  -38989.13830605 Ry
     estimated scf accuracy    <      26.89075041 Ry

     iteration #  8     ecut=    70.00 Ry     beta= 0.40
     Davidson diagonalization with overlap
     ethr =  1.76E-03,  avg # of iterations =  1.0

     total cpu time spent up to now is     1209.5 secs

     total energy              =  -38985.87818136 Ry
     Harris-Foulkes estimate   =  -38987.61666135 Ry
     estimated scf accuracy    <      18.96853555 Ry

     iteration #  9     ecut=    70.00 Ry     beta= 0.40
     Davidson diagonalization with overlap
     ethr =  1.24E-03,  avg # of iterations =  1.0

     total cpu time spent up to now is     1312.3 secs

     total energy              =  -38985.25541006 Ry
     Harris-Foulkes estimate   =  -38986.51427226 Ry
     estimated scf accuracy    <       9.78560338 Ry

     iteration # 10     ecut=    70.00 Ry     beta= 0.40
     Davidson diagonalization with overlap
     ethr =  6.42E-04,  avg # of iterations =  3.0

     total cpu time spent up to now is     1436.1 secs

     total energy              =  -38984.72926059 Ry
     Harris-Foulkes estimate   =  -38985.86698464 Ry
     estimated scf accuracy    <       5.71726568 Ry

     iteration # 11     ecut=    70.00 Ry     beta= 0.40
     Davidson diagonalization with overlap
     ethr =  3.75E-04,  avg # of iterations =  5.0

     total cpu time spent up to now is     1587.8 secs

     total energy              =  -38984.74316174 Ry
     Harris-Foulkes estimate   =  -38986.14192716 Ry
     estimated scf accuracy    <      11.08624286 Ry

     iteration # 12     ecut=    70.00 Ry     beta= 0.40
     Davidson diagonalization with overlap
     ethr =  3.75E-04,  avg # of iterations =  1.4

     total cpu time spent up to now is     1698.8 secs

     total energy              =  -38985.27341700 Ry
     Harris-Foulkes estimate   =  -38985.67817891 Ry
     estimated scf accuracy    <       3.91119418 Ry

     iteration # 13     ecut=    70.00 Ry     beta= 0.40
     Davidson diagonalization with overlap
     ethr =  2.56E-04,  avg # of iterations =  1.0

     total cpu time spent up to now is     1801.5 secs

     total energy              =  -38985.37602037 Ry
     Harris-Foulkes estimate   =  -38985.60778887 Ry
     estimated scf accuracy    <       3.07859893 Ry

     iteration # 14     ecut=    70.00 Ry     beta= 0.40
     Davidson diagonalization with overlap
     ethr =  2.02E-04,  avg # of iterations =  1.0

     total cpu time spent up to now is     1904.3 secs

     total energy              =  -38985.44741546 Ry
     Harris-Foulkes estimate   =  -38985.54998285 Ry
     estimated scf accuracy    <       1.21804788 Ry

     iteration # 15     ecut=    70.00 Ry     beta= 0.40
     Davidson diagonalization with overlap
     ethr =  7.99E-05,  avg # of iterations =  1.0

     total cpu time spent up to now is     2006.7 secs

     total energy              =  -38985.49194272 Ry
     Harris-Foulkes estimate   =  -38985.51079907 Ry
     estimated scf accuracy    <       0.18084775 Ry

     iteration # 16     ecut=    70.00 Ry     beta= 0.40
     Davidson diagonalization with overlap
     ethr =  1.19E-05,  avg # of iterations =  7.8

     total cpu time spent up to now is     2222.6 secs

     total energy              =  -38985.49339938 Ry
     Harris-Foulkes estimate   =  -38985.51024547 Ry
     estimated scf accuracy    <       0.14787417 Ry

     iteration # 17     ecut=    70.00 Ry     beta= 0.40
     Davidson diagonalization with overlap
     ethr =  9.70E-06,  avg # of iterations =  1.5

     total cpu time spent up to now is     2342.4 secs

     total energy              =  -38985.49792139 Ry
     Harris-Foulkes estimate   =  -38985.50609033 Ry
     estimated scf accuracy    <       0.06528336 Ry

     iteration # 18     ecut=    70.00 Ry     beta= 0.40
     Davidson diagonalization with overlap
     ethr =  4.28E-06,  avg # of iterations =  3.2

     total cpu time spent up to now is     2473.4 secs

     total energy              =  -38985.49749522 Ry
     Harris-Foulkes estimate   =  -38985.50663239 Ry
     estimated scf accuracy    <       0.10009929 Ry

     iteration # 19     ecut=    70.00 Ry     beta= 0.40
     Davidson diagonalization with overlap
     ethr =  4.28E-06,  avg # of iterations =  2.5

     total cpu time spent up to now is     2597.4 secs

     total energy              =  -38985.49962353 Ry
     Harris-Foulkes estimate   =  -38985.50492207 Ry
     estimated scf accuracy    <       0.06416252 Ry

     iteration # 20     ecut=    70.00 Ry     beta= 0.40
     Davidson diagonalization with overlap
     ethr =  4.21E-06,  avg # of iterations =  1.0

     total cpu time spent up to now is     2699.6 secs

     total energy              =  -38985.50017985 Ry
     Harris-Foulkes estimate   =  -38985.50472071 Ry
     estimated scf accuracy    <       0.05209365 Ry

     iteration # 21     ecut=    70.00 Ry     beta= 0.40
     Davidson diagonalization with overlap
     ethr =  3.42E-06,  avg # of iterations =  1.0

     total cpu time spent up to now is     2801.8 secs

     total energy              =  -38985.50037203 Ry
     Harris-Foulkes estimate   =  -38985.50499661 Ry
     estimated scf accuracy    <       0.06002516 Ry

     iteration # 22     ecut=    70.00 Ry     beta= 0.40
     Davidson diagonalization with overlap
     ethr =  3.42E-06,  avg # of iterations =  1.0

     total cpu time spent up to now is     2904.8 secs

     total energy              =  -38985.50190011 Ry
     Harris-Foulkes estimate   =  -38985.50362341 Ry
     estimated scf accuracy    <       0.01644762 Ry

     iteration # 23     ecut=    70.00 Ry     beta= 0.40
     Davidson diagonalization with overlap
     ethr =  1.08E-06,  avg # of iterations =  1.0

     total cpu time spent up to now is     3007.4 secs

     total energy              =  -38985.50175896 Ry
     Harris-Foulkes estimate   =  -38985.50374812 Ry
     estimated scf accuracy    <       0.02465254 Ry

     iteration # 24     ecut=    70.00 Ry     beta= 0.40
     Davidson diagonalization with overlap
     ethr =  1.08E-06,  avg # of iterations =  1.0

     total cpu time spent up to now is     3110.5 secs

     total energy              =  -38985.50195985 Ry
     Harris-Foulkes estimate   =  -38985.50365149 Ry
     estimated scf accuracy    <       0.02097246 Ry

     iteration # 25     ecut=    70.00 Ry     beta= 0.40
     Davidson diagonalization with overlap
     ethr =  1.08E-06,  avg # of iterations =  1.0

     total cpu time spent up to now is     3213.1 secs

     total energy              =  -38985.50229054 Ry
     Harris-Foulkes estimate   =  -38985.50347152 Ry
     estimated scf accuracy    <       0.01588896 Ry

     iteration # 26     ecut=    70.00 Ry     beta= 0.40
     Davidson diagonalization with overlap
     ethr =  1.04E-06,  avg # of iterations =  1.0

     total cpu time spent up to now is     3315.5 secs

     total energy              =  -38985.50266268 Ry
     Harris-Foulkes estimate   =  -38985.50315773 Ry
     estimated scf accuracy    <       0.00486562 Ry

     iteration # 27     ecut=    70.00 Ry     beta= 0.40
     Davidson diagonalization with overlap
     ethr =  3.19E-07,  avg # of iterations =  1.0

     total cpu time spent up to now is     3418.0 secs

     total energy              =  -38985.50284059 Ry
     Harris-Foulkes estimate   =  -38985.50303847 Ry
     estimated scf accuracy    <       0.00186826 Ry

     iteration # 28     ecut=    70.00 Ry     beta= 0.40
     Davidson diagonalization with overlap
     ethr =  1.23E-07,  avg # of iterations =  1.0

     total cpu time spent up to now is     3520.6 secs

     total energy              =  -38985.50285536 Ry
     Harris-Foulkes estimate   =  -38985.50302184 Ry
     estimated scf accuracy    <       0.00153780 Ry

     iteration # 29     ecut=    70.00 Ry     beta= 0.40
     Davidson diagonalization with overlap
     ethr =  1.01E-07,  avg # of iterations =  1.0

     total cpu time spent up to now is     3623.6 secs

     total energy              =  -38985.50284990 Ry
     Harris-Foulkes estimate   =  -38985.50304070 Ry
     estimated scf accuracy    <       0.00250942 Ry

     iteration # 30     ecut=    70.00 Ry     beta= 0.40
     Davidson diagonalization with overlap
     ethr =  1.01E-07,  avg # of iterations =  1.0

     total cpu time spent up to now is     3726.1 secs

     total energy              =  -38985.50291297 Ry
     Harris-Foulkes estimate   =  -38985.50300260 Ry
     estimated scf accuracy    <       0.00116938 Ry

     iteration # 31     ecut=    70.00 Ry     beta= 0.40
     Davidson diagonalization with overlap
     ethr =  7.67E-08,  avg # of iterations =  1.0

     total cpu time spent up to now is     3828.6 secs

     total energy              =  -38985.50292187 Ry
     Harris-Foulkes estimate   =  -38985.50299940 Ry
     estimated scf accuracy    <       0.00086685 Ry

     iteration # 32     ecut=    70.00 Ry     beta= 0.40
     Davidson diagonalization with overlap
     ethr =  5.68E-08,  avg # of iterations =  1.0

     total cpu time spent up to now is     3930.9 secs

     total energy              =  -38985.50293860 Ry
     Harris-Foulkes estimate   =  -38985.50298822 Ry
     estimated scf accuracy    <       0.00058580 Ry

     iteration # 33     ecut=    70.00 Ry     beta= 0.40
     Davidson diagonalization with overlap
     ethr =  3.84E-08,  avg # of iterations =  1.0

     total cpu time spent up to now is     4033.2 secs

     total energy              =  -38985.50294179 Ry
     Harris-Foulkes estimate   =  -38985.50298695 Ry
     estimated scf accuracy    <       0.00053995 Ry

     iteration # 34     ecut=    70.00 Ry     beta= 0.40
     Davidson diagonalization with overlap
     ethr =  3.54E-08,  avg # of iterations =  1.0

     total cpu time spent up to now is     4136.2 secs

     total energy              =  -38985.50293690 Ry
     Harris-Foulkes estimate   =  -38985.50299396 Ry
     estimated scf accuracy    <       0.00073456 Ry

     iteration # 35     ecut=    70.00 Ry     beta= 0.40
     Davidson diagonalization with overlap
     ethr =  3.54E-08,  avg # of iterations =  1.0

     total cpu time spent up to now is     4238.7 secs

     total energy              =  -38985.50294016 Ry
     Harris-Foulkes estimate   =  -38985.50299600 Ry
     estimated scf accuracy    <       0.00083370 Ry

     iteration # 36     ecut=    70.00 Ry     beta= 0.40
     Davidson diagonalization with overlap
     ethr =  3.54E-08,  avg # of iterations =  1.0

     total cpu time spent up to now is     4340.8 secs

     total energy              =  -38985.50295819 Ry
     Harris-Foulkes estimate   =  -38985.50297932 Ry
     estimated scf accuracy    <       0.00024204 Ry

     iteration # 37     ecut=    70.00 Ry     beta= 0.40
     Davidson diagonalization with overlap
     ethr =  1.59E-08,  avg # of iterations =  1.0

     total cpu time spent up to now is     4443.0 secs

     total energy              =  -38985.50296426 Ry
     Harris-Foulkes estimate   =  -38985.50297652 Ry
     estimated scf accuracy    <       0.00013509 Ry

     iteration # 38     ecut=    70.00 Ry     beta= 0.40
     Davidson diagonalization with overlap
     ethr =  8.86E-09,  avg # of iterations =  1.0

     total cpu time spent up to now is     4545.5 secs

     total energy              =  -38985.50296753 Ry
     Harris-Foulkes estimate   =  -38985.50297363 Ry
     estimated scf accuracy    <       0.00005432 Ry

     iteration # 39     ecut=    70.00 Ry     beta= 0.40
     Davidson diagonalization with overlap
     ethr =  3.56E-09,  avg # of iterations =  1.0

     total cpu time spent up to now is     4648.1 secs

     total energy              =  -38985.50296593 Ry
     Harris-Foulkes estimate   =  -38985.50297584 Ry
     estimated scf accuracy    <       0.00012741 Ry

     iteration # 40     ecut=    70.00 Ry     beta= 0.40
     Davidson diagonalization with overlap
     ethr =  3.56E-09,  avg # of iterations =  1.0

     total cpu time spent up to now is     4750.7 secs

     total energy              =  -38985.50296878 Ry
     Harris-Foulkes estimate   =  -38985.50297437 Ry
     estimated scf accuracy    <       0.00008173 Ry

     iteration # 41     ecut=    70.00 Ry     beta= 0.40
     Davidson diagonalization with overlap
     ethr =  3.56E-09,  avg # of iterations =  1.0

     total cpu time spent up to now is     4853.6 secs

     total energy              =  -38985.50297058 Ry
     Harris-Foulkes estimate   =  -38985.50297287 Ry
     estimated scf accuracy    <       0.00002041 Ry

     iteration # 42     ecut=    70.00 Ry     beta= 0.40
     Davidson diagonalization with overlap
     ethr =  1.34E-09,  avg # of iterations =  1.0

     total cpu time spent up to now is     4956.5 secs

     total energy              =  -38985.50297046 Ry
     Harris-Foulkes estimate   =  -38985.50297340 Ry
     estimated scf accuracy    <       0.00004057 Ry

     iteration # 43     ecut=    70.00 Ry     beta= 0.40
     Davidson diagonalization with overlap
     ethr =  1.34E-09,  avg # of iterations =  1.0

     total cpu time spent up to now is     5059.5 secs

     total energy              =  -38985.50297138 Ry
     Harris-Foulkes estimate   =  -38985.50297276 Ry
     estimated scf accuracy    <       0.00001587 Ry

     iteration # 44     ecut=    70.00 Ry     beta= 0.40
     Davidson diagonalization with overlap
     ethr =  1.04E-09,  avg # of iterations =  1.0

     total cpu time spent up to now is     5162.3 secs

     total energy              =  -38985.50297125 Ry
     Harris-Foulkes estimate   =  -38985.50297309 Ry
     estimated scf accuracy    <       0.00002397 Ry

     iteration # 45     ecut=    70.00 Ry     beta= 0.40
     Davidson diagonalization with overlap
     ethr =  1.04E-09,  avg # of iterations =  1.0

     total cpu time spent up to now is     5264.8 secs

     total energy              =  -38985.50297100 Ry
     Harris-Foulkes estimate   =  -38985.50297350 Ry
     estimated scf accuracy    <       0.00003775 Ry

     iteration # 46     ecut=    70.00 Ry     beta= 0.40
     Davidson diagonalization with overlap
     ethr =  1.04E-09,  avg # of iterations =  1.0

     total cpu time spent up to now is     5367.3 secs

     total energy              =  -38985.50297180 Ry
     Harris-Foulkes estimate   =  -38985.50297277 Ry
     estimated scf accuracy    <       0.00001193 Ry

     iteration # 47     ecut=    70.00 Ry     beta= 0.40
     Davidson diagonalization with overlap
     ethr =  7.82E-10,  avg # of iterations =  1.0

     total cpu time spent up to now is     5470.4 secs

     total energy              =  -38985.50297201 Ry
     Harris-Foulkes estimate   =  -38985.50297271 Ry
     estimated scf accuracy    <       0.00000839 Ry

     iteration # 48     ecut=    70.00 Ry     beta= 0.40
     Davidson diagonalization with overlap
     ethr =  5.50E-10,  avg # of iterations =  1.0

     total cpu time spent up to now is     5572.7 secs

     total energy              =  -38985.50297224 Ry
     Harris-Foulkes estimate   =  -38985.50297256 Ry
     estimated scf accuracy    <       0.00000338 Ry

     iteration # 49     ecut=    70.00 Ry     beta= 0.40
     Davidson diagonalization with overlap
     ethr =  2.21E-10,  avg # of iterations =  1.0

     total cpu time spent up to now is     5674.5 secs

     total energy              =  -38985.50297219 Ry
     Harris-Foulkes estimate   =  -38985.50297264 Ry
     estimated scf accuracy    <       0.00000534 Ry

     iteration # 50     ecut=    70.00 Ry     beta= 0.40
     Davidson diagonalization with overlap
     ethr =  2.21E-10,  avg # of iterations =  1.0

     total cpu time spent up to now is     5776.6 secs

     total energy              =  -38985.50297227 Ry
     Harris-Foulkes estimate   =  -38985.50297263 Ry
     estimated scf accuracy    <       0.00000552 Ry

     iteration # 51     ecut=    70.00 Ry     beta= 0.40
     Davidson diagonalization with overlap
     ethr =  2.21E-10,  avg # of iterations =  1.0

     total cpu time spent up to now is     5878.5 secs

     total energy              =  -38985.50297242 Ry
     Harris-Foulkes estimate   =  -38985.50297252 Ry
     estimated scf accuracy    <       0.00000107 Ry

     iteration # 52     ecut=    70.00 Ry     beta= 0.40
     Davidson diagonalization with overlap
     ethr =  7.02E-11,  avg # of iterations =  1.0

     total cpu time spent up to now is     5980.5 secs

     total energy              =  -38985.50297241 Ry
     Harris-Foulkes estimate   =  -38985.50297255 Ry
     estimated scf accuracy    <       0.00000194 Ry

     iteration # 53     ecut=    70.00 Ry     beta= 0.40
     Davidson diagonalization with overlap
     ethr =  7.02E-11,  avg # of iterations =  1.0

     total cpu time spent up to now is     6082.9 secs

     End of self-consistent calculation

          k = 0.1398 0.2795 0.2795 (116137 PWs)   bands (ev):

   -99.3468 -99.2091 -99.1424 -99.1127 -99.0667 -98.9941 -98.9783 -98.9753
   -98.9753 -98.9348 -98.9266 -98.9179 -98.8957 -98.8330 -98.8070 -98.7930
   -98.7924 -98.7712 -98.7553 -98.7429 -98.7377 -98.7226 -98.7208 -98.7161
   -98.5618 -98.5188 -98.5093 -98.4980 -98.4962 -98.4945 -98.4773 -98.4654
   -98.4544 -98.4367 -98.4205 -98.3712 -98.3175 -98.2771 -98.2769 -98.2356
   -98.2216 -98.1986 -98.1809 -98.1637 -98.1610 -98.1330 -98.1305 -98.0617
   -98.0463 -57.0608 -57.0088 -56.8759 -56.8144 -56.7090 -56.6992 -56.6928
   -56.6663 -56.6458 -56.5885 -56.5763 -56.5384 -56.5382 -56.5145 -56.5014
   -56.4898 -56.4748 -56.4401 -56.4171 -56.4157 -56.3621 -56.3586 -56.3555
   -56.3543 -56.3332 -56.3292 -56.2950 -56.2912 -56.2735 -56.2589 -56.2577
   -56.2427 -56.2314 -56.2127 -56.1903 -56.1881 -56.1805 -56.1667 -56.1660
   -56.1600 -56.1570 -56.1501 -56.1400 -56.1355 -56.1346 -56.1303 -56.1214
   -56.1173 -56.1141 -56.0970 -56.0866 -56.0793 -56.0784 -56.0708 -56.0702
   -56.0643 -56.0529 -56.0396 -56.0240 -56.0141 -56.0065 -56.0061 -55.9950
   -55.9876 -55.9815 -55.9810 -55.9799 -55.9681 -55.9675 -55.9634 -55.9614
   -55.9584 -55.9502 -55.9478 -55.9464 -55.9452 -55.9391 -55.9351 -55.9289
   -55.9238 -55.9157 -55.8998 -55.8889 -55.8593 -55.8574 -55.8546 -55.8497
   -55.8289 -55.8148 -55.8090 -55.7915 -55.7810 -55.7801 -55.7744 -55.7679
   -55.7613 -55.7613 -55.7530 -55.7462 -55.7372 -55.7168 -55.7123 -55.7011
   -55.7000 -55.6971 -55.6962 -55.6958 -55.6915 -55.6910 -55.6660 -55.6656
   -55.6627 -55.6462 -55.6373 -55.6356 -55.6099 -55.6043 -55.5952 -55.5946
   -55.5916 -55.5781 -55.5620 -55.5570 -55.5483 -55.5452 -55.5431 -55.5359
   -55.5344 -55.5237 -55.4886 -55.4882 -55.4827 -55.4775 -55.4722 -55.4620
   -55.4614 -55.4535 -55.4487 -55.4438 -55.4331 -55.4311 -55.4181 -55.4039
   -55.3999 -55.3777 -55.3706 -55.3316 -34.2347 -34.2252 -34.1790 -34.1739
   -34.1587 -34.1402 -34.1261 -34.1136 -34.0961 -34.0801 -34.0739 -34.0660
   -34.0603 -34.0484 -34.0465 -34.0294 -34.0247 -34.0050 -33.9998 -33.9978
   -33.9961 -33.9663 -33.9523 -33.9247 -33.9112 -33.9040 -33.8827 -33.8650
   -33.8634 -33.8579 -33.8530 -33.8491 -33.8295 -33.8228 -33.7808 -33.7718
   -33.7599 -33.7574 -33.7447 -33.7171 -33.7117 -33.6959 -33.6865 -33.6623
   -33.5950 -33.5755 -33.5453 -33.3342 -33.0858 -13.7470 -13.3892 -13.0080
   -12.9835 -12.7786 -12.7668 -12.7435 -12.7209 -12.7039 -12.6565 -12.6351
   -12.6197 -12.5940 -12.5805 -12.5616 -12.5543 -12.5042 -12.5008 -12.4748
   -12.4709 -12.4572 -12.4433 -12.4324 -12.4153 -12.4121 -12.4014 -12.3922
   -12.3816 -12.3678 -12.3631 -12.3536 -12.3463 -12.3403 -12.3222 -12.3144
   -12.3051 -12.3032 -12.2970 -12.2938 -12.2904 -12.2815 -12.2745 -12.2606
   -12.2571 -12.2535 -12.2454 -12.2403 -12.2310 -12.2284 -12.2185 -12.2104
   -12.2078 -12.1952 -12.1901 -12.1777 -12.1729 -12.1628 -12.1597 -12.1524
   -12.1482 -12.1411 -12.1379 -12.1360 -12.1277 -12.1223 -12.1178 -12.1016
   -12.0974 -12.0885 -12.0783 -12.0717 -12.0670 -12.0606 -12.0516 -12.0461
   -12.0398 -12.0239 -12.0150 -12.0095 -12.0082 -11.9967 -11.9935 -11.9920
   -11.9770 -11.9678 -11.9617 -11.9594 -11.9486 -11.9426 -11.9255 -11.9171
   -11.9085 -11.9059 -11.9022 -11.8938 -11.8817 -11.8756 -11.8691 -11.8647
   -11.8554 -11.8511 -11.8443 -11.8299 -11.8251 -11.8166 -11.7995 -11.7892
   -11.7801 -11.7718 -11.7667 -11.7568 -11.7451 -11.7310 -11.7089 -11.7064
   -11.6936 -11.6762 -11.6722 -11.6643 -11.6503 -11.6365 -11.6148 -11.6036
   -11.6018 -11.5546 -11.5438 -11.5298 -11.5217 -11.4908 -11.4863 -11.4732
   -11.4636 -11.4328 -11.4175 -11.4158 -11.3695 -11.3523 -11.3392 -11.2833
   -11.2469 -11.2337 -11.2081 -11.1975 -11.1069 -11.0934 -10.6155 -10.0374
     7.2977   7.6754   7.9460   8.1457   8.3721   8.5256   8.6667   8.7833
     8.8118   8.9033   9.0544   9.1127   9.2044   9.2640   9.3302   9.3508
     9.3925   9.4273   9.4603   9.5293   9.5614   9.6062   9.6342   9.6811
     9.7077   9.7146   9.7470   9.7816   9.8004   9.8219   9.8414   9.8637
     9.8780   9.8948   9.9067   9.9221   9.9527   9.9590   9.9655   9.9947
    10.0066  10.0238  10.0405  10.0500  10.0605  10.0710  10.0833  10.1100
    10.1257  10.1379  10.1442  10.1576  10.1704  10.1785  10.1861  10.1910
    10.2002  10.2178  10.2310  10.2349  10.2392  10.2595  10.2617  10.2781
    10.2893  10.2979  10.3104  10.3237  10.3293  10.3468  10.3502  10.3647
    10.3723  10.3792  10.3861  10.3958  10.3986  10.4121  10.4223  10.4381
    10.4527  10.4611  10.4684  10.4717  10.4753  10.4901  10.5037  10.5155
    10.5226  10.5322  10.5473  10.5530  10.5590  10.5708  10.5741  10.5841
    10.5952  10.6025  10.6111  10.6138  10.6245  10.6300  10.6430  10.6496
    10.6605  10.6648  10.6734  10.6850  10.6916  10.7001  10.7035  10.7166
    10.7267  10.7340  10.7441  10.7509  10.7576  10.7671  10.7782  10.7814
    10.7874  10.8013  10.8081  10.8192  10.8296  10.8336  10.8417  10.8498
    10.8578  10.8656  10.8759  10.8791  10.8885  10.8962  10.9066  10.9123
    10.9168  10.9335  10.9411  10.9433  10.9543  10.9661  10.9693  10.9787
    10.9843  10.9929  10.9996  11.0073  11.0227  11.0298  11.0342  11.0393
    11.0468  11.0522  11.0633  11.0654  11.0777  11.0865  11.0950  11.0998
    11.1070  11.1179  11.1229  11.1347  11.1405  11.1505  11.1543  11.1660
    11.1746  11.1824  11.1881  11.1958  11.2039  11.2084  11.2197  11.2237
    11.2382  11.2423  11.2522  11.2662  11.2726  11.2831  11.2901  11.3011
    11.3115  11.3194  11.3229  11.3336  11.3387  11.3537  11.3604  11.3710
    11.3847  11.3878  11.3958  11.4044  11.4124  11.4155  11.4276  11.4341
    11.4447  11.4527  11.4601  11.4728  11.4835  11.4900  11.4996  11.5042
    11.5120  11.5224  11.5283  11.5363  11.5430  11.5548  11.5636  11.5666
    11.5795  11.5861  11.5917  11.6056  11.6063  11.6207  11.6366  11.6416
    11.6482  11.6556  11.6614  11.6780  11.6902  11.6964  11.7129  11.7182
    11.7261  11.7382  11.7463  11.7571  11.7673  11.7912  11.7957  11.8099
    11.8306  11.8344  11.8464  11.8538  11.8682  11.8751  11.8960  11.9032
    11.9159  11.9307  11.9539  11.9728  11.9732  11.9912  12.0001  12.0140
    12.0307  12.0429  12.0546  12.0725  12.0913  12.1069  12.1229  12.1373
    12.1531  12.1663  12.1855  12.2005  12.2127  12.2291  12.2395  12.2518
    12.2805  12.2977  12.3109  12.3275  12.3579  12.3663  12.3960  12.4180
    12.4669  12.5119  12.5215  12.5410  12.5755  12.5942  12.6310  12.6496
    12.6941  12.7129  12.7410  12.7908  12.8218  12.8445  12.8706  12.8941
    12.9394  12.9684  13.0033  13.0170  13.0468  13.0874  13.1207  13.1275
    13.1742  13.2112  13.2296  13.2601  13.2759  13.3034  13.3438  13.3682
    13.3851  13.4090  13.4487  13.4849  13.4990  13.5189  13.5524  13.5801
    13.6145  13.6507  13.6690  13.6853  13.7121  13.7552  13.7674  13.8051
    13.8178  13.8533  13.8630  13.8850  13.9374  13.9575  13.9865  14.0009
    14.0200  14.0433  14.0573  14.0850  14.1126  14.1286  14.1517  14.1713
    14.1898  14.2157  14.2494  14.2681  14.2894  14.3144  14.3275  14.3607
    14.3965  14.4223  14.4530  14.4633  14.4755  14.4971  14.5209  14.5387
    14.5667  14.5921  14.6208  14.6405  14.6577  14.6978  14.7060  14.7364
    14.7557  14.7735  14.7824  14.8154  14.8308  14.8691  14.8839  14.9143
    14.9370  14.9452  14.9783  14.9847  15.0160  15.0430  15.0671  15.0935
    15.1145  15.1284  15.1553  15.1748  15.1990  15.2217  15.2313  15.2673
    15.2837  15.3090  15.3296  15.3741  15.3891  15.4175  15.4478  15.4659
    15.4783  15.5005  15.5486  15.5750  15.5887  15.6272  15.6467  15.6702
    15.7066  15.7403  15.7516  15.7762  15.8111  15.8419  15.8583  15.8970
    15.9055  15.9469  15.9706  15.9945  16.0110  16.0317  16.0651  16.0796
    16.1171  16.1187  16.1691  16.1890  16.2030  16.2513  16.2602  16.3152
    16.3309  16.3542  16.3760  16.3974  16.4453  16.4801  16.5049  16.5182
    16.5232  16.5676  16.5904  16.6164  16.6416  16.6770  16.6899  16.7161
    16.7416  16.7747  16.7998  16.8128  16.8428  16.8678  16.8997  16.9119
    16.9447  16.9766  17.0136  17.0297  17.0487  17.0771  17.1035  17.1245
    17.1748  17.1804  17.1969  17.2385  17.2745  17.3082  17.3480  17.3593
    17.3718  17.4053  17.4361  17.4594  17.4810  17.5257  17.5582  17.5752
    17.6132  17.6252  17.6532  17.6624  17.6896  17.7261  17.7502  17.7845
    17.8014  17.8265  17.8484  17.8674  17.9137  17.9443  17.9549  17.9847
    17.9982  18.0501  18.0570  18.0813  18.1217  18.1387  18.1631  18.1872
    18.2248  18.2447  18.2724  18.2975  18.3254  18.3456  18.3573  18.3851
    18.4179  18.4390  18.4648  18.4866  18.5045  18.5551  18.5783  18.5931
    18.6329  18.6424  18.6742  18.7056  18.7245  18.7588  18.7779  18.8149
    18.8350  18.8630  18.8931  18.9444  18.9650  18.9996  19.0165  19.0517
    19.0877  19.1242  19.1472  19.1911  19.2438  19.2843  19.3143  19.3415
    19.3646  19.4014  19.4662  19.4928  19.5320  19.5616  19.5877  19.6236
    19.6909  19.7080  19.7793  19.8402  19.8889  19.9322  19.9705  20.0122
    20.0307  20.0721  20.1155  20.1492  20.1920  20.2375  20.2897  20.3274
    20.3789  20.4244  20.4651  20.5058  20.5654  20.6087  20.6386  20.6860
    20.7445  20.7779  20.8259  20.8446  20.8880  20.9634  20.9714  21.0281
    21.0857  21.1270  21.1845  21.2398  21.2949  21.3409  21.3794  21.4041
    21.4760  21.5058  21.5557  21.5943  21.6634  21.7077  21.7405  21.7646
    21.8220  21.8689  21.9245  21.9501  21.9770  22.0202  22.0538  22.1119
    22.1549  22.1666  22.2619  22.3049  22.3138  22.4106  22.4355  22.5221
    22.5328  22.5786  22.6031  22.6795  22.7047  22.7286  22.7631  22.8462
    22.8843  22.9577  22.9665  23.0502  23.0751  23.1106  23.1740  23.2139
    23.2259  23.3266  23.3526  23.3776  23.3964  23.4463  23.5068  23.5564
    23.5924  23.6751  23.7074  23.7519  23.7850  23.8354  23.8838  23.9124
    23.9619  23.9917  24.0371  24.0712  24.1208  24.1938  24.2171  24.2447
    24.2695  24.3231  24.3624  24.3856  24.4171  24.4955  24.5054  24.5196
    24.5810  24.6167  24.6543  24.6987  24.7305  24.7646  24.8191  24.8675
    24.9033  24.9470  24.9882  25.0570  25.0742  25.1206  25.1615  25.1743
    25.2074  25.2445  25.2935  25.3461  25.3853  25.4407  25.4814  25.4962
    25.5389  25.6009  25.6101  25.6379  25.6819  25.7280

     occupation numbers 
     1.0000   1.0000   1.0000   1.0000   1.0000   1.0000   1.0000   1.0000
     1.0000   1.0000   1.0000   1.0000   1.0000   1.0000   1.0000   1.0000
     1.0000   1.0000   1.0000   1.0000   1.0000   1.0000   1.0000   1.0000
     1.0000   1.0000   1.0000   1.0000   1.0000   1.0000   1.0000   1.0000
     1.0000   1.0000   1.0000   1.0000   1.0000   1.0000   1.0000   1.0000
     1.0000   1.0000   1.0000   1.0000   1.0000   1.0000   1.0000   1.0000
     1.0000   1.0000   1.0000   1.0000   1.0000   1.0000   1.0000   1.0000
     1.0000   1.0000   1.0000   1.0000   1.0000   1.0000   1.0000   1.0000
     1.0000   1.0000   1.0000   1.0000   1.0000   1.0000   1.0000   1.0000
     1.0000   1.0000   1.0000   1.0000   1.0000   1.0000   1.0000   1.0000
     1.0000   1.0000   1.0000   1.0000   1.0000   1.0000   1.0000   1.0000
     1.0000   1.0000   1.0000   1.0000   1.0000   1.0000   1.0000   1.0000
     1.0000   1.0000   1.0000   1.0000   1.0000   1.0000   1.0000   1.0000
     1.0000   1.0000   1.0000   1.0000   1.0000   1.0000   1.0000   1.0000
     1.0000   1.0000   1.0000   1.0000   1.0000   1.0000   1.0000   1.0000
     1.0000   1.0000   1.0000   1.0000   1.0000   1.0000   1.0000   1.0000
     1.0000   1.0000   1.0000   1.0000   1.0000   1.0000   1.0000   1.0000
     1.0000   1.0000   1.0000   1.0000   1.0000   1.0000   1.0000   1.0000
     1.0000   1.0000   1.0000   1.0000   1.0000   1.0000   1.0000   1.0000
     1.0000   1.0000   1.0000   1.0000   1.0000   1.0000   1.0000   1.0000
     1.0000   1.0000   1.0000   1.0000   1.0000   1.0000   1.0000   1.0000
     1.0000   1.0000   1.0000   1.0000   1.0000   1.0000   1.0000   1.0000
     1.0000   1.0000   1.0000   1.0000   1.0000   1.0000   1.0000   1.0000
     1.0000   1.0000   1.0000   1.0000   1.0000   1.0000   1.0000   1.0000
     1.0000   1.0000   1.0000   1.0000   1.0000   1.0000   1.0000   1.0000
     1.0000   1.0000   1.0000   1.0000   1.0000   1.0000   1.0000   1.0000
     1.0000   1.0000   1.0000   1.0000   1.0000   1.0000   1.0000   1.0000
     1.0000   1.0000   1.0000   1.0000   1.0000   1.0000   1.0000   1.0000
     1.0000   1.0000   1.0000   1.0000   1.0000   1.0000   1.0000   1.0000
     1.0000   1.0000   1.0000   1.0000   1.0000   1.0000   1.0000   1.0000
     1.0000   1.0000   1.0000   1.0000   1.0000   1.0000   1.0000   1.0000
     1.0000   1.0000   1.0000   1.0000   1.0000   1.0000   1.0000   1.0000
     1.0000   1.0000   1.0000   1.0000   1.0000   1.0000   1.0000   1.0000
     1.0000   1.0000   1.0000   1.0000   1.0000   1.0000   1.0000   1.0000
     1.0000   1.0000   1.0000   1.0000   1.0000   1.0000   1.0000   1.0000
     1.0000   1.0000   1.0000   1.0000   1.0000   1.0000   1.0000   1.0000
     1.0000   1.0000   1.0000   1.0000   1.0000   1.0000   1.0000   1.0000
     1.0000   1.0000   1.0000   1.0000   1.0000   1.0000   1.0000   1.0000
     1.0000   1.0000   1.0000   1.0000   1.0000   1.0000   1.0000   1.0000
     1.0000   1.0000   1.0000   1.0000   1.0000   1.0000   1.0000   1.0000
     1.0000   1.0000   1.0000   1.0000   1.0000   1.0000   1.0000   1.0000
     1.0000   1.0000   1.0000   1.0000   1.0000   1.0000   1.0000   1.0000
     1.0000   1.0000   1.0000   1.0000   1.0000   1.0000   1.0000   1.0000
     1.0000   1.0000   1.0000   1.0000   1.0000   1.0000   1.0000   1.0000
     1.0000   1.0000   1.0000   1.0000   1.0000   1.0000   1.0000   1.0000
     1.0000   1.0000   1.0000   1.0000   1.0000   1.0000   1.0000   1.0000
     1.0000   1.0000   1.0000   1.0000   1.0000   1.0000   1.0000   1.0000
     1.0000   1.0000   1.0000   1.0000   1.0000   1.0000   1.0000   1.0000
     1.0000   1.0000   1.0000   1.0000   1.0000   1.0000   1.0000   1.0000
     1.0000   1.0000   1.0000   1.0000   1.0000   1.0000   1.0000   1.0000
     1.0000   1.0000   1.0000   1.0000   1.0000   1.0000   1.0000   1.0000
     1.0000   1.0000   1.0000   1.0000   1.0000   1.0000   1.0000   1.0000
     1.0000   1.0000   1.0000   1.0000   1.0000   1.0000   1.0000   1.0000
     1.0000   1.0000   1.0000   1.0000   1.0000   1.0000   1.0000   1.0000
     1.0000   1.0000   1.0000   1.0000   1.0000   1.0000   1.0000   1.0000
     1.0000   1.0000   1.0000   1.0000   1.0000   1.0000   1.0000   1.0000
     1.0000   1.0000   1.0000   1.0000   1.0000   1.0000   1.0000   1.0000
     1.0000   1.0000   1.0000   1.0000   1.0000   1.0000   1.0000   1.0000
     1.0000   1.0000   1.0000   1.0000   1.0000   1.0000   1.0000   1.0000
     1.0000   1.0000   1.0000   1.0000   1.0000   1.0000   1.0000   1.0000
     1.0000   1.0000   1.0000   1.0000   1.0000   1.0000   1.0000   1.0000
     1.0000   1.0000   1.0000   1.0000   1.0000   1.0000   1.0000   1.0000
     1.0000   1.0000   1.0000   1.0000   1.0000   1.0000   1.0000   1.0000
     1.0000   1.0000   1.0000   1.0000   1.0000   1.0000   1.0000   1.0000
     1.0000   1.0000   1.0000   1.0000   1.0000   1.0000   1.0000   1.0000
     1.0000   1.0000   1.0000   1.0000   1.0000   1.0000   1.0000   1.0000
     1.0000   1.0000   1.0000   1.0000   1.0000   1.0000   1.0000   1.0000
     1.0000   1.0000   1.0000   1.0000   1.0000   1.0000   1.0000   1.0000
     1.0000   1.0000   1.0000   1.0000   1.0000   1.0000   1.0000   1.0000
     1.0000   1.0000   1.0000   1.0000   1.0000   1.0000   1.0000   1.0000
     1.0000   1.0000   1.0000   1.0000   1.0000   1.0000   1.0000   1.0000
     1.0000   1.0000   1.0000   1.0000   1.0000   1.0000   1.0000   1.0000
     1.0000   1.0000   1.0000   1.0000   1.0000   1.0000   1.0000   1.0000
     1.0000   1.0000   1.0000   1.0000   1.0000   1.0000   1.0000   1.0000
     1.0000   1.0000   1.0000   1.0000   1.0000   1.0000   1.0000   1.0000
     1.0000   1.0000   1.0000   1.0000   1.0000   1.0000   1.0000   1.0000
     1.0000   1.0000   1.0000   1.0000   1.0000   1.0000   1.0000   1.0000
     1.0000   1.0000   1.0000   1.0000   1.0000   1.0000   1.0000   1.0000
     1.0000   1.0000   1.0000   1.0000   1.0000   1.0000   1.0000   1.0000
     1.0000   1.0000   1.0000   1.0000   1.0000   1.0000   1.0000   1.0000
     1.0000   1.0000   1.0000   1.0000   1.0000   1.0000   1.0000   1.0000
     1.0000   1.0000   1.0000   1.0000   1.0000   1.0000   1.0000   1.0000
     1.0000   1.0000   1.0000   1.0000   1.0000   1.0000   1.0000   1.0000
     1.0000   1.0000   1.0000   1.0000   1.0000   1.0000   1.0000   1.0000
     1.0000   1.0000   1.0000   1.0000   1.0000   1.0000   1.0000   1.0000
     1.0000   1.0000   1.0000   1.0000   1.0000   1.0000   1.0000   1.0000
     1.0000   1.0000   1.0000   1.0000   1.0000   1.0000   1.0000   1.0000
     1.0000   1.0000   1.0000   1.0000   1.0000   1.0000   1.0000   1.0000
     1.0000   1.0000   1.0000   1.0000   1.0000   1.0000   1.0000   1.0000
     1.0000   1.0000   1.0000   1.0000   1.0000   0.9999   0.9999   0.9999
     0.9999   0.9998   0.9998   0.9998   0.9996   0.9995   0.9994   0.9993
     0.9992   0.9990   0.9989   0.9985   0.9981   0.9978   0.9973   0.9967
     0.9961   0.9951   0.9933   0.9921   0.9904   0.9880   0.9864   0.9817
     0.9747   0.9682   0.9583   0.9544   0.9492   0.9387   0.9249   0.9127
     0.8899   0.8649   0.8310   0.8040   0.7779   0.7079   0.6922   0.6296
     0.5876   0.5474   0.5269   0.4513   0.4168   0.3343   0.3048   0.2491
     0.2121   0.1998   0.1555   0.1480   0.1153   0.0923   0.0753   0.0601
     0.0501   0.0443   0.0350   0.0294   0.0237   0.0193   0.0177   0.0128
     0.0110   0.0087   0.0073   0.0048   0.0042   0.0032   0.0025   0.0021
     0.0019   0.0015   0.0010   0.0008   0.0007   0.0005   0.0004   0.0003
     0.0002   0.0002   0.0002   0.0001   0.0001   0.0001   0.0001   0.0000
     0.0000   0.0000   0.0000   0.0000   0.0000   0.0000   0.0000   0.0000
     0.0000   0.0000   0.0000   0.0000   0.0000   0.0000   0.0000   0.0000
     0.0000   0.0000   0.0000   0.0000   0.0000   0.0000   0.0000   0.0000
     0.0000   0.0000   0.0000   0.0000   0.0000   0.0000   0.0000   0.0000
     0.0000   0.0000   0.0000   0.0000   0.0000   0.0000   0.0000   0.0000
     0.0000   0.0000   0.0000   0.0000   0.0000   0.0000   0.0000   0.0000
     0.0000   0.0000   0.0000   0.0000   0.0000   0.0000   0.0000   0.0000
     0.0000   0.0000   0.0000   0.0000   0.0000   0.0000   0.0000   0.0000
     0.0000   0.0000   0.0000   0.0000   0.0000   0.0000   0.0000   0.0000
     0.0000   0.0000   0.0000   0.0000   0.0000   0.0000   0.0000   0.0000
     0.0000   0.0000   0.0000   0.0000   0.0000   0.0000   0.0000   0.0000
     0.0000   0.0000   0.0000   0.0000   0.0000   0.0000   0.0000   0.0000
     0.0000   0.0000   0.0000   0.0000   0.0000   0.0000   0.0000   0.0000
     0.0000   0.0000   0.0000   0.0000   0.0000   0.0000   0.0000   0.0000
     0.0000   0.0000   0.0000   0.0000   0.0000   0.0000   0.0000   0.0000
     0.0000   0.0000   0.0000   0.0000   0.0000   0.0000   0.0000   0.0000
     0.0000   0.0000   0.0000   0.0000   0.0000   0.0000   0.0000   0.0000
     0.0000   0.0000   0.0000   0.0000   0.0000   0.0000   0.0000   0.0000
     0.0000   0.0000   0.0000   0.0000   0.0000   0.0000   0.0000   0.0000
     0.0000   0.0000   0.0000   0.0000   0.0000   0.0000   0.0000   0.0000
     0.0000   0.0000   0.0000   0.0000   0.0000   0.0000   0.0000   0.0000
     0.0000   0.0000   0.0000   0.0000   0.0000   0.0000   0.0000   0.0000
     0.0000   0.0000   0.0000   0.0000   0.0000   0.0000   0.0000   0.0000
     0.0000   0.0000   0.0000   0.0000   0.0000   0.0000   0.0000   0.0000
     0.0000   0.0000   0.0000   0.0000   0.0000   0.0000   0.0000   0.0000
     0.0000   0.0000   0.0000   0.0000   0.0000   0.0000   0.0000   0.0000
     0.0000   0.0000   0.0000   0.0000   0.0000   0.0000   0.0000   0.0000
     0.0000   0.0000   0.0000   0.0000   0.0000   0.0000   0.0000   0.0000
     0.0000   0.0000   0.0000   0.0000   0.0000   0.0000   0.0000   0.0000
     0.0000   0.0000   0.0000   0.0000   0.0000   0.0000   0.0000   0.0000
     0.0000   0.0000   0.0000   0.0000   0.0000   0.0000   0.0000   0.0000
     0.0000   0.0000   0.0000   0.0000   0.0000   0.0000   0.0000   0.0000
     0.0000   0.0000   0.0000   0.0000   0.0000   0.0000   0.0000   0.0000
     0.0000   0.0000   0.0000   0.0000   0.0000   0.0000   0.0000   0.0000
     0.0000   0.0000   0.0000   0.0000   0.0000   0.0000

          k = 0.1398 0.2795-0.2795 (116137 PWs)   bands (ev):

   -99.3468 -99.2091 -99.1424 -99.1127 -99.0667 -98.9941 -98.9783 -98.9753
   -98.9753 -98.9348 -98.9266 -98.9179 -98.8957 -98.8330 -98.8070 -98.7930
   -98.7924 -98.7712 -98.7553 -98.7429 -98.7377 -98.7226 -98.7208 -98.7161
   -98.5618 -98.5188 -98.5093 -98.4980 -98.4962 -98.4945 -98.4773 -98.4654
   -98.4544 -98.4367 -98.4205 -98.3712 -98.3175 -98.2771 -98.2769 -98.2356
   -98.2216 -98.1986 -98.1809 -98.1637 -98.1610 -98.1330 -98.1305 -98.0617
   -98.0463 -57.0608 -57.0088 -56.8759 -56.8144 -56.7090 -56.6992 -56.6928
   -56.6663 -56.6458 -56.5885 -56.5763 -56.5384 -56.5382 -56.5145 -56.5014
   -56.4898 -56.4748 -56.4401 -56.4171 -56.4156 -56.3621 -56.3586 -56.3555
   -56.3543 -56.3332 -56.3292 -56.2950 -56.2912 -56.2735 -56.2589 -56.2577
   -56.2427 -56.2314 -56.2127 -56.1903 -56.1881 -56.1805 -56.1667 -56.1660
   -56.1600 -56.1570 -56.1501 -56.1400 -56.1355 -56.1346 -56.1303 -56.1214
   -56.1173 -56.1141 -56.0970 -56.0866 -56.0793 -56.0784 -56.0708 -56.0702
   -56.0643 -56.0529 -56.0396 -56.0240 -56.0141 -56.0065 -56.0061 -55.9950
   -55.9876 -55.9815 -55.9810 -55.9799 -55.9681 -55.9675 -55.9634 -55.9614
   -55.9584 -55.9502 -55.9478 -55.9464 -55.9452 -55.9391 -55.9351 -55.9289
   -55.9238 -55.9157 -55.8998 -55.8889 -55.8593 -55.8574 -55.8546 -55.8497
   -55.8289 -55.8148 -55.8090 -55.7915 -55.7810 -55.7801 -55.7744 -55.7679
   -55.7613 -55.7613 -55.7530 -55.7462 -55.7372 -55.7168 -55.7123 -55.7011
   -55.7000 -55.6971 -55.6962 -55.6958 -55.6915 -55.6910 -55.6660 -55.6656
   -55.6627 -55.6462 -55.6373 -55.6356 -55.6099 -55.6043 -55.5952 -55.5946
   -55.5916 -55.5781 -55.5620 -55.5570 -55.5483 -55.5452 -55.5431 -55.5359
   -55.5344 -55.5237 -55.4886 -55.4882 -55.4827 -55.4775 -55.4722 -55.4620
   -55.4614 -55.4535 -55.4487 -55.4438 -55.4331 -55.4311 -55.4181 -55.4039
   -55.3999 -55.3777 -55.3706 -55.3316 -34.2347 -34.2252 -34.1790 -34.1739
   -34.1587 -34.1402 -34.1261 -34.1136 -34.0961 -34.0801 -34.0740 -34.0660
   -34.0603 -34.0484 -34.0464 -34.0294 -34.0246 -34.0050 -33.9998 -33.9978
   -33.9961 -33.9663 -33.9523 -33.9247 -33.9112 -33.9040 -33.8827 -33.8650
   -33.8634 -33.8579 -33.8530 -33.8491 -33.8295 -33.8228 -33.7808 -33.7718
   -33.7599 -33.7574 -33.7446 -33.7171 -33.7117 -33.6959 -33.6864 -33.6623
   -33.5950 -33.5755 -33.5453 -33.3342 -33.0858 -13.7470 -13.3892 -13.0080
   -12.9835 -12.7785 -12.7668 -12.7434 -12.7212 -12.7039 -12.6565 -12.6350
   -12.6201 -12.5934 -12.5807 -12.5620 -12.5538 -12.5043 -12.5008 -12.4747
   -12.4710 -12.4577 -12.4422 -12.4336 -12.4162 -12.4113 -12.4009 -12.3925
   -12.3825 -12.3681 -12.3609 -12.3520 -12.3462 -12.3401 -12.3256 -12.3122
   -12.3058 -12.3036 -12.3000 -12.2922 -12.2857 -12.2809 -12.2734 -12.2665
   -12.2575 -12.2501 -12.2444 -12.2372 -12.2347 -12.2269 -12.2202 -12.2149
   -12.2079 -12.1981 -12.1896 -12.1785 -12.1719 -12.1652 -12.1574 -12.1540
   -12.1490 -12.1433 -12.1355 -12.1314 -12.1303 -12.1195 -12.1146 -12.1020
   -12.0987 -12.0894 -12.0818 -12.0695 -12.0643 -12.0602 -12.0483 -12.0446
   -12.0390 -12.0257 -12.0173 -12.0116 -12.0060 -12.0007 -11.9934 -11.9920
   -11.9752 -11.9669 -11.9625 -11.9573 -11.9516 -11.9409 -11.9268 -11.9201
   -11.9073 -11.9058 -11.9017 -11.8911 -11.8832 -11.8779 -11.8686 -11.8640
   -11.8577 -11.8480 -11.8422 -11.8340 -11.8226 -11.8164 -11.8013 -11.7878
   -11.7804 -11.7720 -11.7651 -11.7576 -11.7452 -11.7303 -11.7104 -11.7052
   -11.6941 -11.6781 -11.6732 -11.6629 -11.6502 -11.6368 -11.6148 -11.6027
   -11.6012 -11.5546 -11.5439 -11.5303 -11.5211 -11.4911 -11.4863 -11.4737
   -11.4632 -11.4328 -11.4186 -11.4145 -11.3696 -11.3522 -11.3391 -11.2833
   -11.2469 -11.2338 -11.2082 -11.1975 -11.1069 -11.0934 -10.6155 -10.0374
     7.2970   7.6895   7.9046   8.1874   8.3504   8.5316   8.6956   8.7731
     8.8526   8.8838   9.0014   9.0989   9.2198   9.2348   9.3060   9.3799
     9.4192   9.4422   9.4953   9.5071   9.5562   9.5913   9.6250   9.6805
     9.7020   9.7263   9.7549   9.7740   9.7866   9.8200   9.8382   9.8662
     9.8769   9.8982   9.9183   9.9326   9.9495   9.9635   9.9790   9.9912
    10.0062  10.0169  10.0307  10.0477  10.0549  10.0755  10.0920  10.1071
    10.1116  10.1379  10.1489  10.1574  10.1676  10.1816  10.1884  10.1934
    10.2023  10.2109  10.2211  10.2378  10.2478  10.2571  10.2689  10.2838
    10.3000  10.3041  10.3110  10.3194  10.3260  10.3407  10.3528  10.3649
    10.3703  10.3776  10.3924  10.3994  10.4093  10.4146  10.4233  10.4409
    10.4503  10.4575  10.4648  10.4719  10.4798  10.4881  10.4979  10.5098
    10.5205  10.5349  10.5450  10.5533  10.5578  10.5635  10.5773  10.5819
    10.5875  10.6003  10.6089  10.6159  10.6283  10.6371  10.6431  10.6507
    10.6617  10.6683  10.6758  10.6843  10.6882  10.6981  10.7058  10.7197
    10.7290  10.7360  10.7446  10.7525  10.7634  10.7654  10.7800  10.7884
    10.7943  10.8027  10.8101  10.8156  10.8218  10.8299  10.8328  10.8441
    10.8517  10.8605  10.8684  10.8789  10.8862  10.9017  10.9093  10.9160
    10.9243  10.9326  10.9423  10.9488  10.9518  10.9611  10.9625  10.9751
    10.9829  10.9948  11.0016  11.0117  11.0224  11.0279  11.0308  11.0459
    11.0529  11.0593  11.0623  11.0746  11.0783  11.0882  11.0946  11.0998
    11.1072  11.1112  11.1200  11.1371  11.1438  11.1522  11.1557  11.1619
    11.1708  11.1767  11.1900  11.1965  11.2013  11.2064  11.2173  11.2239
    11.2382  11.2426  11.2568  11.2624  11.2748  11.2810  11.2854  11.3022
    11.3109  11.3141  11.3315  11.3363  11.3436  11.3539  11.3637  11.3675
    11.3864  11.3916  11.3968  11.4028  11.4093  11.4209  11.4287  11.4399
    11.4446  11.4567  11.4593  11.4664  11.4786  11.4865  11.4927  11.5025
    11.5114  11.5157  11.5267  11.5354  11.5451  11.5504  11.5658  11.5700
    11.5815  11.5857  11.5908  11.6023  11.6072  11.6148  11.6262  11.6414
    11.6481  11.6583  11.6682  11.6750  11.6894  11.6975  11.7034  11.7169
    11.7311  11.7386  11.7502  11.7516  11.7678  11.7793  11.7915  11.8046
    11.8179  11.8266  11.8472  11.8684  11.8809  11.8880  11.8951  11.9079
    11.9185  11.9253  11.9426  11.9546  11.9624  11.9877  11.9988  12.0081
    12.0308  12.0459  12.0579  12.0699  12.0820  12.1019  12.1150  12.1399
    12.1548  12.1682  12.1856  12.1953  12.2073  12.2346  12.2531  12.2582
    12.2858  12.3029  12.3315  12.3463  12.3588  12.3873  12.4055  12.4217
    12.4495  12.4855  12.5105  12.5496  12.5730  12.6085  12.6205  12.6712
    12.7057  12.7288  12.7619  12.7938  12.8174  12.8423  12.8661  12.9003
    12.9114  12.9425  12.9743  13.0155  13.0570  13.1027  13.1151  13.1552
    13.1817  13.2027  13.2493  13.2720  13.2843  13.3242  13.3368  13.3619
    13.4003  13.4137  13.4447  13.4615  13.5150  13.5260  13.5391  13.5767
    13.6252  13.6565  13.6683  13.6905  13.7112  13.7248  13.7455  13.7888
    13.8013  13.8564  13.8696  13.8925  13.9108  13.9470  13.9791  13.9953
    14.0156  14.0521  14.0594  14.0892  14.1166  14.1343  14.1564  14.1773
    14.1890  14.2177  14.2396  14.2590  14.2876  14.3160  14.3451  14.3670
    14.3932  14.4130  14.4392  14.4518  14.4976  14.5088  14.5395  14.5452
    14.5712  14.6129  14.6219  14.6324  14.6611  14.6666  14.7076  14.7216
    14.7750  14.7893  14.7923  14.8244  14.8463  14.8643  14.8830  14.8995
    14.9140  14.9448  14.9623  14.9862  14.9998  15.0299  15.0709  15.0846
    15.1002  15.1200  15.1426  15.1773  15.1952  15.2141  15.2370  15.2841
    15.3004  15.3173  15.3472  15.3650  15.3910  15.4099  15.4347  15.4583
    15.4909  15.4994  15.5258  15.5510  15.5854  15.6118  15.6346  15.6565
    15.7049  15.7236  15.7608  15.7937  15.8223  15.8468  15.8815  15.8937
    15.9117  15.9433  15.9583  15.9985  16.0325  16.0484  16.0853  16.1126
    16.1299  16.1458  16.1685  16.1936  16.2349  16.2526  16.2677  16.2997
    16.3496  16.3561  16.3773  16.4152  16.4320  16.4625  16.4830  16.5025
    16.5332  16.5524  16.5759  16.5991  16.6368  16.6471  16.6813  16.6943
    16.7364  16.7789  16.7878  16.8137  16.8566  16.8806  16.9078  16.9294
    16.9578  16.9818  17.0174  17.0358  17.0685  17.0906  17.1191  17.1324
    17.1725  17.1876  17.2346  17.2608  17.2859  17.2997  17.3327  17.3572
    17.3801  17.4089  17.4406  17.4576  17.4826  17.4964  17.5247  17.5540
    17.5890  17.6115  17.6606  17.6854  17.6927  17.7292  17.7489  17.7755
    17.7928  17.8215  17.8393  17.8724  17.9198  17.9450  17.9635  17.9792
    18.0064  18.0115  18.0461  18.0912  18.1160  18.1282  18.1622  18.1802
    18.2101  18.2439  18.2662  18.2947  18.3229  18.3256  18.3664  18.3963
    18.4202  18.4511  18.4672  18.4866  18.5131  18.5414  18.5683  18.6033
    18.6322  18.6481  18.6609  18.7101  18.7525  18.7678  18.7795  18.8099
    18.8294  18.8549  18.8889  18.9279  18.9361  18.9821  19.0221  19.0680
    19.1081  19.1324  19.1611  19.2051  19.2392  19.2696  19.3076  19.3265
    19.3813  19.4177  19.4337  19.4774  19.5145  19.5956  19.6283  19.6498
    19.6759  19.7509  19.7660  19.8187  19.8738  19.9121  19.9586  20.0076
    20.0399  20.0852  20.1260  20.1511  20.1848  20.2414  20.2771  20.3243
    20.3869  20.4255  20.4677  20.5189  20.5457  20.5640  20.6652  20.6905
    20.7273  20.8057  20.8218  20.8692  20.8867  20.9497  21.0143  21.0745
    21.1281  21.1676  21.1998  21.2534  21.2960  21.3273  21.3646  21.4186
    21.4458  21.4685  21.5485  21.5803  21.6327  21.6735  21.7070  21.7480
    21.8000  21.8399  21.8815  21.9430  22.0037  22.0568  22.0878  22.1241
    22.1747  22.1846  22.2414  22.3035  22.3218  22.3610  22.3909  22.4954
    22.5139  22.5757  22.6183  22.7075  22.7372  22.8024  22.8176  22.8561
    22.8947  22.9256  22.9710  23.0507  23.0863  23.1061  23.1638  23.1970
    23.2159  23.2649  23.3292  23.3873  23.4583  23.4936  23.5160  23.5683
    23.6326  23.6681  23.7202  23.7416  23.7860  23.8110  23.8485  23.8680
    23.9215  23.9834  24.0198  24.0619  24.1115  24.1431  24.1627  24.2129
    24.2548  24.2822  24.3258  24.3833  24.4363  24.4663  24.5205  24.5388
    24.5876  24.6538  24.6972  24.7578  24.7877  24.8304  24.8809  24.8880
    24.9196  24.9343  24.9802  25.0205  25.0944  25.1248  25.1719  25.2069
    25.2267  25.2747  25.3160  25.3869  25.4116  25.4414  25.4621  25.4729
    25.5490  25.5944  25.6198  25.6285  25.6768  25.7198

     occupation numbers 
     1.0000   1.0000   1.0000   1.0000   1.0000   1.0000   1.0000   1.0000
     1.0000   1.0000   1.0000   1.0000   1.0000   1.0000   1.0000   1.0000
     1.0000   1.0000   1.0000   1.0000   1.0000   1.0000   1.0000   1.0000
     1.0000   1.0000   1.0000   1.0000   1.0000   1.0000   1.0000   1.0000
     1.0000   1.0000   1.0000   1.0000   1.0000   1.0000   1.0000   1.0000
     1.0000   1.0000   1.0000   1.0000   1.0000   1.0000   1.0000   1.0000
     1.0000   1.0000   1.0000   1.0000   1.0000   1.0000   1.0000   1.0000
     1.0000   1.0000   1.0000   1.0000   1.0000   1.0000   1.0000   1.0000
     1.0000   1.0000   1.0000   1.0000   1.0000   1.0000   1.0000   1.0000
     1.0000   1.0000   1.0000   1.0000   1.0000   1.0000   1.0000   1.0000
     1.0000   1.0000   1.0000   1.0000   1.0000   1.0000   1.0000   1.0000
     1.0000   1.0000   1.0000   1.0000   1.0000   1.0000   1.0000   1.0000
     1.0000   1.0000   1.0000   1.0000   1.0000   1.0000   1.0000   1.0000
     1.0000   1.0000   1.0000   1.0000   1.0000   1.0000   1.0000   1.0000
     1.0000   1.0000   1.0000   1.0000   1.0000   1.0000   1.0000   1.0000
     1.0000   1.0000   1.0000   1.0000   1.0000   1.0000   1.0000   1.0000
     1.0000   1.0000   1.0000   1.0000   1.0000   1.0000   1.0000   1.0000
     1.0000   1.0000   1.0000   1.0000   1.0000   1.0000   1.0000   1.0000
     1.0000   1.0000   1.0000   1.0000   1.0000   1.0000   1.0000   1.0000
     1.0000   1.0000   1.0000   1.0000   1.0000   1.0000   1.0000   1.0000
     1.0000   1.0000   1.0000   1.0000   1.0000   1.0000   1.0000   1.0000
     1.0000   1.0000   1.0000   1.0000   1.0000   1.0000   1.0000   1.0000
     1.0000   1.0000   1.0000   1.0000   1.0000   1.0000   1.0000   1.0000
     1.0000   1.0000   1.0000   1.0000   1.0000   1.0000   1.0000   1.0000
     1.0000   1.0000   1.0000   1.0000   1.0000   1.0000   1.0000   1.0000
     1.0000   1.0000   1.0000   1.0000   1.0000   1.0000   1.0000   1.0000
     1.0000   1.0000   1.0000   1.0000   1.0000   1.0000   1.0000   1.0000
     1.0000   1.0000   1.0000   1.0000   1.0000   1.0000   1.0000   1.0000
     1.0000   1.0000   1.0000   1.0000   1.0000   1.0000   1.0000   1.0000
     1.0000   1.0000   1.0000   1.0000   1.0000   1.0000   1.0000   1.0000
     1.0000   1.0000   1.0000   1.0000   1.0000   1.0000   1.0000   1.0000
     1.0000   1.0000   1.0000   1.0000   1.0000   1.0000   1.0000   1.0000
     1.0000   1.0000   1.0000   1.0000   1.0000   1.0000   1.0000   1.0000
     1.0000   1.0000   1.0000   1.0000   1.0000   1.0000   1.0000   1.0000
     1.0000   1.0000   1.0000   1.0000   1.0000   1.0000   1.0000   1.0000
     1.0000   1.0000   1.0000   1.0000   1.0000   1.0000   1.0000   1.0000
     1.0000   1.0000   1.0000   1.0000   1.0000   1.0000   1.0000   1.0000
     1.0000   1.0000   1.0000   1.0000   1.0000   1.0000   1.0000   1.0000
     1.0000   1.0000   1.0000   1.0000   1.0000   1.0000   1.0000   1.0000
     1.0000   1.0000   1.0000   1.0000   1.0000   1.0000   1.0000   1.0000
     1.0000   1.0000   1.0000   1.0000   1.0000   1.0000   1.0000   1.0000
     1.0000   1.0000   1.0000   1.0000   1.0000   1.0000   1.0000   1.0000
     1.0000   1.0000   1.0000   1.0000   1.0000   1.0000   1.0000   1.0000
     1.0000   1.0000   1.0000   1.0000   1.0000   1.0000   1.0000   1.0000
     1.0000   1.0000   1.0000   1.0000   1.0000   1.0000   1.0000   1.0000
     1.0000   1.0000   1.0000   1.0000   1.0000   1.0000   1.0000   1.0000
     1.0000   1.0000   1.0000   1.0000   1.0000   1.0000   1.0000   1.0000
     1.0000   1.0000   1.0000   1.0000   1.0000   1.0000   1.0000   1.0000
     1.0000   1.0000   1.0000   1.0000   1.0000   1.0000   1.0000   1.0000
     1.0000   1.0000   1.0000   1.0000   1.0000   1.0000   1.0000   1.0000
     1.0000   1.0000   1.0000   1.0000   1.0000   1.0000   1.0000   1.0000
     1.0000   1.0000   1.0000   1.0000   1.0000   1.0000   1.0000   1.0000
     1.0000   1.0000   1.0000   1.0000   1.0000   1.0000   1.0000   1.0000
     1.0000   1.0000   1.0000   1.0000   1.0000   1.0000   1.0000   1.0000
     1.0000   1.0000   1.0000   1.0000   1.0000   1.0000   1.0000   1.0000
     1.0000   1.0000   1.0000   1.0000   1.0000   1.0000   1.0000   1.0000
     1.0000   1.0000   1.0000   1.0000   1.0000   1.0000   1.0000   1.0000
     1.0000   1.0000   1.0000   1.0000   1.0000   1.0000   1.0000   1.0000
     1.0000   1.0000   1.0000   1.0000   1.0000   1.0000   1.0000   1.0000
     1.0000   1.0000   1.0000   1.0000   1.0000   1.0000   1.0000   1.0000
     1.0000   1.0000   1.0000   1.0000   1.0000   1.0000   1.0000   1.0000
     1.0000   1.0000   1.0000   1.0000   1.0000   1.0000   1.0000   1.0000
     1.0000   1.0000   1.0000   1.0000   1.0000   1.0000   1.0000   1.0000
     1.0000   1.0000   1.0000   1.0000   1.0000   1.0000   1.0000   1.0000
     1.0000   1.0000   1.0000   1.0000   1.0000   1.0000   1.0000   1.0000
     1.0000   1.0000   1.0000   1.0000   1.0000   1.0000   1.0000   1.0000
     1.0000   1.0000   1.0000   1.0000   1.0000   1.0000   1.0000   1.0000
     1.0000   1.0000   1.0000   1.0000   1.0000   1.0000   1.0000   1.0000
     1.0000   1.0000   1.0000   1.0000   1.0000   1.0000   1.0000   1.0000
     1.0000   1.0000   1.0000   1.0000   1.0000   1.0000   1.0000   1.0000
     1.0000   1.0000   1.0000   1.0000   1.0000   1.0000   1.0000   1.0000
[...]
     atom   84 type  2   force =     0.00033512   -0.00019336   -0.00005211
     atom   85 type  3   force =     0.00083195    0.00084027    0.00055102
     atom   86 type  2   force =    -0.00145295    0.00092573   -0.00001777
     atom   87 type  3   force =    -0.00163535    0.00065806   -0.00027632
     atom   88 type  3   force =    -0.00246266    0.00106309   -0.00082467
     atom   89 type  1   force =     0.00373981   -0.00340004   -0.01018593
     atom   90 type  3   force =    -0.00396582    0.00075690    0.00084400
     atom   91 type  2   force =    -0.00007134    0.00030803    0.00032312
     atom   92 type  2   force =     0.00010307   -0.00022745   -0.00004488
     atom   93 type  2   force =     0.00026063   -0.00016050   -0.00001622
     atom   94 type  2   force =    -0.00066406    0.00067998   -0.00003424
     atom   95 type  2   force =    -0.00007887   -0.00031530    0.00009993
     atom   96 type  3   force =     0.00069605   -0.00091134    0.00260846
     atom   97 type  3   force =     0.00499729   -0.00441644   -0.00202737
     atom   98 type  2   force =     0.00031300    0.00015583    0.00057179
     atom   99 type  2   force =    -0.00001787   -0.00033836   -0.00066517
     atom  100 type  3   force =     0.00044792    0.00040524    0.00013694
     The Hubbard contrib.    to forces
     atom    1 type  2   force =     0.00000000    0.00000000    0.00000000
     atom    2 type  3   force =     0.00000000    0.00000000    0.00000000
     atom    3 type  2   force =     0.00000000    0.00000000    0.00000000
     atom    4 type  2   force =     0.00000000    0.00000000    0.00000000
     atom    5 type  3   force =     0.00000000    0.00000000    0.00000000
     atom    6 type  2   force =     0.00000000    0.00000000    0.00000000
     atom    7 type  2   force =     0.00000000    0.00000000    0.00000000
     atom    8 type  2   force =     0.00000000    0.00000000    0.00000000
     atom    9 type  3   force =     0.00000000    0.00000000    0.00000000
     atom   10 type  2   force =     0.00000000    0.00000000    0.00000000
     atom   11 type  3   force =     0.00000000    0.00000000    0.00000000
     atom   12 type  3   force =     0.00000000    0.00000000    0.00000000
     atom   13 type  3   force =     0.00000000    0.00000000    0.00000000
     atom   14 type  3   force =     0.00000000    0.00000000    0.00000000
     atom   15 type  2   force =     0.00000000    0.00000000    0.00000000
     atom   16 type  3   force =     0.00000000    0.00000000    0.00000000
     atom   17 type  2   force =     0.00000000    0.00000000    0.00000000
     atom   18 type  2   force =     0.00000000    0.00000000    0.00000000
     atom   19 type  3   force =     0.00000000    0.00000000    0.00000000
     atom   20 type  2   force =     0.00000000    0.00000000    0.00000000
     atom   21 type  2   force =     0.00000000    0.00000000    0.00000000
     atom   22 type  2   force =     0.00000000    0.00000000    0.00000000
     atom   23 type  3   force =     0.00000000    0.00000000    0.00000000
     atom   24 type  2   force =     0.00000000    0.00000000    0.00000000
     atom   25 type  2   force =     0.00000000    0.00000000    0.00000000
     atom   26 type  3   force =     0.00000000    0.00000000    0.00000000
     atom   27 type  2   force =     0.00000000    0.00000000    0.00000000
     atom   28 type  2   force =     0.00000000    0.00000000    0.00000000
     atom   29 type  3   force =     0.00000000    0.00000000    0.00000000
     atom   30 type  2   force =     0.00000000    0.00000000    0.00000000
     atom   31 type  3   force =     0.00000000    0.00000000    0.00000000
     atom   32 type  3   force =     0.00000000    0.00000000    0.00000000
     atom   33 type  3   force =     0.00000000    0.00000000    0.00000000
     atom   34 type  1   force =     0.00000000    0.00000000    0.00000000
     atom   35 type  2   force =     0.00000000    0.00000000    0.00000000
     atom   36 type  2   force =     0.00000000    0.00000000    0.00000000
     atom   37 type  3   force =     0.00000000    0.00000000    0.00000000
     atom   38 type  3   force =     0.00000000    0.00000000    0.00000000
     atom   39 type  2   force =     0.00000000    0.00000000    0.00000000
     atom   40 type  3   force =     0.00000000    0.00000000    0.00000000
     atom   41 type  3   force =     0.00000000    0.00000000    0.00000000
     atom   42 type  3   force =     0.00000000    0.00000000    0.00000000
     atom   43 type  2   force =     0.00000000    0.00000000    0.00000000
     atom   44 type  3   force =     0.00000000    0.00000000    0.00000000
     atom   45 type  2   force =     0.00000000    0.00000000    0.00000000
     atom   46 type  3   force =     0.00000000    0.00000000    0.00000000
     atom   47 type  3   force =     0.00000000    0.00000000    0.00000000
     atom   48 type  3   force =     0.00000000    0.00000000    0.00000000
     atom   49 type  2   force =     0.00000000    0.00000000    0.00000000
     atom   50 type  3   force =     0.00000000    0.00000000    0.00000000
     atom   51 type  3   force =     0.00000000    0.00000000    0.00000000
     atom   52 type  3   force =     0.00000000    0.00000000    0.00000000
     atom   53 type  2   force =     0.00000000    0.00000000    0.00000000
     atom   54 type  3   force =     0.00000000    0.00000000    0.00000000
     atom   55 type  3   force =     0.00000000    0.00000000    0.00000000
     atom   56 type  2   force =     0.00000000    0.00000000    0.00000000
     atom   57 type  3   force =     0.00000000    0.00000000    0.00000000
     atom   58 type  2   force =     0.00000000    0.00000000    0.00000000
     atom   59 type  3   force =     0.00000000    0.00000000    0.00000000
     atom   60 type  3   force =     0.00000000    0.00000000    0.00000000
     atom   61 type  2   force =     0.00000000    0.00000000    0.00000000
     atom   62 type  3   force =     0.00000000    0.00000000    0.00000000
     atom   63 type  2   force =     0.00000000    0.00000000    0.00000000
     atom   64 type  2   force =     0.00000000    0.00000000    0.00000000
     atom   65 type  3   force =     0.00000000    0.00000000    0.00000000
     atom   66 type  2   force =     0.00000000    0.00000000    0.00000000
     atom   67 type  2   force =     0.00000000    0.00000000    0.00000000
     atom   68 type  2   force =     0.00000000    0.00000000    0.00000000
     atom   69 type  2   force =     0.00000000    0.00000000    0.00000000
     atom   70 type  3   force =     0.00000000    0.00000000    0.00000000
     atom   71 type  2   force =     0.00000000    0.00000000    0.00000000
     atom   72 type  2   force =     0.00000000    0.00000000    0.00000000
     atom   73 type  3   force =     0.00000000    0.00000000    0.00000000
     atom   74 type  2   force =     0.00000000    0.00000000    0.00000000
     atom   75 type  2   force =     0.00000000    0.00000000    0.00000000
     atom   76 type  3   force =     0.00000000    0.00000000    0.00000000
     atom   77 type  3   force =     0.00000000    0.00000000    0.00000000
     atom   78 type  2   force =     0.00000000    0.00000000    0.00000000
     atom   79 type  3   force =     0.00000000    0.00000000    0.00000000
     atom   80 type  2   force =     0.00000000    0.00000000    0.00000000
     atom   81 type  3   force =     0.00000000    0.00000000    0.00000000
     atom   82 type  3   force =     0.00000000    0.00000000    0.00000000
     atom   83 type  3   force =     0.00000000    0.00000000    0.00000000
     atom   84 type  2   force =     0.00000000    0.00000000    0.00000000
     atom   85 type  3   force =     0.00000000    0.00000000    0.00000000
     atom   86 type  2   force =     0.00000000    0.00000000    0.00000000
     atom   87 type  3   force =     0.00000000    0.00000000    0.00000000
     atom   88 type  3   force =     0.00000000    0.00000000    0.00000000
     atom   89 type  1   force =     0.00000000    0.00000000    0.00000000
     atom   90 type  3   force =     0.00000000    0.00000000    0.00000000
     atom   91 type  2   force =     0.00000000    0.00000000    0.00000000
     atom   92 type  2   force =     0.00000000    0.00000000    0.00000000
     atom   93 type  2   force =     0.00000000    0.00000000    0.00000000
     atom   94 type  2   force =     0.00000000    0.00000000    0.00000000
     atom   95 type  2   force =     0.00000000    0.00000000    0.00000000
     atom   96 type  3   force =     0.00000000    0.00000000    0.00000000
     atom   97 type  3   force =     0.00000000    0.00000000    0.00000000
     atom   98 type  2   force =     0.00000000    0.00000000    0.00000000
     atom   99 type  2   force =     0.00000000    0.00000000    0.00000000
     atom  100 type  3   force =     0.00000000    0.00000000    0.00000000
     The SCF correction term to forces
     atom    1 type  2   force =     0.00005224   -0.00016181   -0.00032518
     atom    2 type  3   force =     0.00010135    0.00002727   -0.00033609
     atom    3 type  2   force =    -0.00004319   -0.00009141   -0.00050437
     atom    4 type  2   force =    -0.00059490   -0.00043375   -0.00009343
     atom    5 type  3   force =    -0.00086647   -0.00033321    0.00053357
     atom    6 type  2   force =     0.00069966    0.00002338    0.00055950
     atom    7 type  2   force =    -0.00045420   -0.00043196    0.00034168
     atom    8 type  2   force =     0.00048172   -0.00010312   -0.00020696
     atom    9 type  3   force =    -0.00034724   -0.00034116   -0.00028755
     atom   10 type  2   force =     0.00030370   -0.00011801   -0.00038985
     atom   11 type  3   force =    -0.00011612    0.00005464   -0.00029265
     atom   12 type  3   force =    -0.00026042    0.00018447    0.00001501
     atom   13 type  3   force =     0.00000022    0.00013869    0.00037136
     atom   14 type  3   force =    -0.00017980    0.00008400    0.00024343
     atom   15 type  2   force =    -0.00045577    0.00034812    0.00008578
     atom   16 type  3   force =    -0.00051976    0.00012315   -0.00007677
     atom   17 type  2   force =    -0.00113909    0.00011775   -0.00007135
     atom   18 type  2   force =    -0.00109825    0.00001115    0.00042028
     atom   19 type  3   force =    -0.00018253   -0.00008539    0.00045588
     atom   20 type  2   force =    -0.00110880    0.00065906    0.00040890
     atom   21 type  2   force =    -0.00155757    0.00004915    0.00016580
     atom   22 type  2   force =    -0.00089037    0.00024317   -0.00062381
     atom   23 type  3   force =    -0.00040290    0.00009544   -0.00028817
     atom   24 type  2   force =    -0.00158528   -0.00015601    0.00059542
     atom   25 type  2   force =    -0.00046545    0.00009989    0.00049994
     atom   26 type  3   force =     0.00054520   -0.00007842   -0.00030632
     atom   27 type  2   force =     0.00099098    0.00026405   -0.00034200
     atom   28 type  2   force =     0.00086217    0.00024173   -0.00038805
     atom   29 type  3   force =     0.00037285    0.00013960    0.00000251
     atom   30 type  2   force =     0.00112486   -0.00005047    0.00052683
     atom   31 type  3   force =     0.00072000    0.00020586    0.00026363
     atom   32 type  3   force =     0.00057832    0.00002367    0.00008276
     atom   33 type  3   force =     0.00064899   -0.00022726   -0.00020144
     atom   34 type  1   force =     0.00011292   -0.00006025   -0.00010467
     atom   35 type  2   force =     0.00095516   -0.00060852   -0.00025394
     atom   36 type  2   force =     0.00003773   -0.00052473   -0.00007650
     atom   37 type  3   force =     0.00061604   -0.00040478    0.00034958
     atom   38 type  3   force =     0.00039217   -0.00021974    0.00033974
     atom   39 type  2   force =     0.00048174    0.00000387   -0.00037705
     atom   40 type  3   force =    -0.00011250   -0.00001428   -0.00043073
     atom   41 type  3   force =     0.00063409   -0.00006641   -0.00017648
     atom   42 type  3   force =    -0.00012983   -0.00003319    0.00010809
     atom   43 type  2   force =     0.00109391    0.00014457    0.00097917
     atom   44 type  3   force =     0.00040963    0.00005880    0.00019019
     atom   45 type  2   force =     0.00042006    0.00014243   -0.00063234
     atom   46 type  3   force =     0.00042120    0.00018536   -0.00019200
     atom   47 type  3   force =     0.00036926    0.00029870   -0.00035485
     atom   48 type  3   force =     0.00064495    0.00023549    0.00012904
     atom   49 type  2   force =     0.00093400    0.00018885    0.00088904
     atom   50 type  3   force =     0.00017778   -0.00005670    0.00038103
     atom   51 type  3   force =     0.00067443   -0.00004413   -0.00021491
     atom   52 type  3   force =    -0.00008293   -0.00004685   -0.00037494
     atom   53 type  2   force =     0.00123145   -0.00044472   -0.00018990
     atom   54 type  3   force =     0.00075362   -0.00029039    0.00021244
     atom   55 type  3   force =     0.00023912   -0.00019852    0.00042064
     atom   56 type  2   force =    -0.00007901   -0.00053623   -0.00072022
     atom   57 type  3   force =     0.00052554   -0.00047213   -0.00037954
     atom   58 type  2   force =     0.00108805   -0.00075598    0.00001897
     atom   59 type  3   force =    -0.00016974   -0.00037385    0.00038251
     atom   60 type  3   force =    -0.00010377   -0.00055593    0.00011016
     atom   61 type  2   force =     0.00140303   -0.00056231    0.00058731
     atom   62 type  3   force =     0.00025567    0.00003453   -0.00049906
     atom   63 type  2   force =     0.00024391   -0.00010811   -0.00021232
     atom   64 type  2   force =     0.00027020    0.00076521    0.00004239
     atom   65 type  3   force =     0.00021857    0.00011507    0.00032264
     atom   66 type  2   force =     0.00078454   -0.00025788    0.00074666
     atom   67 type  2   force =    -0.00000493   -0.00008299   -0.00020496
     atom   68 type  2   force =     0.00024372    0.00059849   -0.00047596
     atom   69 type  2   force =     0.00030465    0.00080303   -0.00022837
     atom   70 type  3   force =     0.00037885    0.00024296    0.00003667
     atom   71 type  2   force =     0.00108064    0.00051054    0.00041940
     atom   72 type  2   force =     0.00079650    0.00041373    0.00030092
     atom   73 type  3   force =     0.00033880    0.00033713    0.00024318
     atom   74 type  2   force =     0.00058857    0.00058438   -0.00006223
     atom   75 type  2   force =    -0.00041461   -0.00103558   -0.00082223
     atom   76 type  3   force =    -0.00074689   -0.00016008   -0.00038539
     atom   77 type  3   force =    -0.00011029   -0.00048442   -0.00015164
     atom   78 type  2   force =    -0.00120333   -0.00050781   -0.00036618
     atom   79 type  3   force =    -0.00050773   -0.00027574    0.00019209
     atom   80 type  2   force =    -0.00146937   -0.00077672    0.00095448
     atom   81 type  3   force =    -0.00068415   -0.00022141    0.00005344
     atom   82 type  3   force =    -0.00047221   -0.00027206   -0.00002593
     atom   83 type  3   force =    -0.00030507   -0.00015453   -0.00025809
     atom   84 type  2   force =    -0.00065169   -0.00017823    0.00005250
     atom   85 type  3   force =    -0.00052405   -0.00010229   -0.00000168
     atom   86 type  2   force =    -0.00095210    0.00047652    0.00050927
     atom   87 type  3   force =    -0.00038102    0.00033276   -0.00029567
     atom   88 type  3   force =    -0.00019521    0.00044294   -0.00033254
     atom   89 type  1   force =    -0.00011514    0.00007282   -0.00006793
     atom   90 type  3   force =    -0.00044472    0.00040778    0.00020263
     atom   91 type  2   force =    -0.00085274    0.00076933    0.00043334
     atom   92 type  2   force =    -0.00062997    0.00075209    0.00063807
     atom   93 type  2   force =    -0.00048428    0.00032735    0.00032482
     atom   94 type  2   force =    -0.00116123    0.00055673   -0.00073579
     atom   95 type  2   force =    -0.00033566    0.00079128   -0.00064640
     atom   96 type  3   force =    -0.00063435    0.00032176   -0.00017428
     atom   97 type  3   force =    -0.00085797   -0.00006531    0.00015943
     atom   98 type  2   force =    -0.00019826    0.00068235    0.00036476
     atom   99 type  2   force =    -0.00055509    0.00018795    0.00069345
     atom  100 type  3   force =    -0.00041160    0.00039679   -0.00003744

     Total force =     0.993161     Total SCF correction =     0.008560

     Writing output data file Zr49Cu49Al2.save
 
     init_run     :     38.50s CPU     39.36s WALL (       1 calls)
     electrons    :   5943.94s CPU   6042.40s WALL (       1 calls)
     forces       :     23.71s CPU     24.38s WALL (       1 calls)

     Called by init_run:
     wfcinit      :     32.41s CPU     32.76s WALL (       1 calls)
     wfcinit:atom :      0.06s CPU      0.09s WALL (       1 calls)
     wfcinit:wfcr :     32.08s CPU     32.32s WALL (       1 calls)
     potinit      :      1.15s CPU      1.21s WALL (       1 calls)

     Called by electrons:
     c_bands      :   5046.76s CPU   5104.09s WALL (      53 calls)
     sum_band     :    762.26s CPU    783.68s WALL (      53 calls)
     v_of_rho     :     22.48s CPU     23.05s WALL (      54 calls)
     v_h          :      2.15s CPU      2.21s WALL (      54 calls)
     v_xc         :     20.69s CPU     21.21s WALL (      55 calls)
     newd         :     94.37s CPU    112.50s WALL (      54 calls)
     PAW_pot      :      9.56s CPU     10.00s WALL (      54 calls)
     mix_rho      :      5.68s CPU      5.94s WALL (      53 calls)

     Called by c_bands:
     init_us_2    :      9.33s CPU      9.43s WALL (     107 calls)
     cegterg      :   4813.06s CPU   4864.48s WALL (      53 calls)

     Called by sum_band:
     sum_band:bec :      1.49s CPU      1.51s WALL (      53 calls)
     addusdens    :    125.54s CPU    142.59s WALL (      53 calls)

     Called by *egterg:
     h_psi        :   2106.65s CPU   2118.90s WALL (     133 calls)
     s_psi        :    450.52s CPU    451.84s WALL (     133 calls)
     g_psi        :      2.72s CPU      2.73s WALL (      79 calls)
     cdiaghg      :    967.98s CPU    981.95s WALL (     132 calls)
     cegterg:over :    531.95s CPU    535.52s WALL (      79 calls)
     cegterg:upda :    300.33s CPU    301.97s WALL (      79 calls)
     cegterg:last :    267.41s CPU    267.48s WALL (      53 calls)
     cdiaghg:chol :     47.55s CPU     48.32s WALL (     132 calls)
     cdiaghg:inve :     57.49s CPU     57.89s WALL (     132 calls)
     cdiaghg:para :    143.16s CPU    148.80s WALL (     264 calls)

     Called by h_psi:
     h_psi:pot    :   2099.63s CPU   2111.86s WALL (     133 calls)
     h_psi:calbec :    423.51s CPU    424.68s WALL (     133 calls)
     vloc_psi     :   1230.90s CPU   1240.77s WALL (     133 calls)
     add_vuspsi   :    445.22s CPU    446.40s WALL (     133 calls)

     General routines
     calbec       :    644.22s CPU    646.22s WALL (     190 calls)
     fft          :     31.38s CPU     32.56s WALL (     871 calls)
     ffts         :      0.70s CPU      0.72s WALL (     107 calls)
     fftw         :   1148.53s CPU   1158.12s WALL (  295648 calls)
     interpolate  :      4.68s CPU      4.89s WALL (     107 calls)
 
     Parallel routines
     fft_scatt_xy :    102.76s CPU    103.76s WALL (  296626 calls)
     fft_scatt_yz :    216.97s CPU    220.15s WALL (  296626 calls)

     PAW routines
     PAW_pot      :      9.56s CPU     10.00s WALL (      54 calls)
 
     PWSCF        :     1h40m CPU        1h48m WALL

 
   This run was terminated on:  18:42:38  19Apr2019            

=------------------------------------------------------------------------------=
   JOB DONE.
=------------------------------------------------------------------------------=
