  COHP#  atomMU  atomNU     distance     translation      ICOHP (at) eF   for spin  1
      1     Cu1     Zr2      2.98435       0   0   0           -0.66399 
      2     Cu1     Cu3      2.47846       0   0   0           -0.49535 
      3     Cu1     Cu7      2.80670       0   0   1           -0.22055 
      4     Cu1     Cu8      2.89070       0   0   0           -0.16386 
      5     Cu1     Zr9      2.55830       0   0   0           -1.41860 
      6     Cu1    Cu10      2.84564       0   0   0           -0.19964 
      7     Cu1    Zr11      3.08075       0   0   0           -0.53608 
      8     Cu1    Zr26      2.74575       0   0   0           -1.08243 
      9     Cu1    Cu27      3.94811       0   0   0           -0.01438 
     10     Cu1    Cu28      3.71267       0   0   0           -0.00421 
     11     Cu1    Zr32      2.92438       0   0   1           -0.67275 
     12     Cu1    Cu75      4.06888       1   0   0           -0.02930 
     13     Cu1    Zr76      3.77618       1   0   0           -0.11692 
     14     Cu1    Zr82      2.22012       1   0   0           -3.35677 
     15     Cu1    Zr83      3.68949       1   0   0           -0.15596 
     16     Zr2     Cu3      2.63351       0   0   0           -1.31328 
     17     Zr2     Cu7      2.92175       0   0   1           -0.76698 
     18     Zr2     Zr9      4.13282       0   0   0           -0.38038 
     19     Zr2    Cu21      3.92859       0   1   0           -0.09517 
     20     Zr2    Cu22      3.34143       0   1   0           -0.35281 
     21     Zr2    Zr23      3.39951       0   1   0           -0.91368 
     22     Zr2    Zr26      4.08235       0   0   0           -0.32663 
     23     Zr2    Cu27      3.36811       0   0   0           -0.30192 
     24     Zr2    Cu28      3.21155       0   0   0           -0.46870 
     25     Zr2    Zr32      3.72761       0   0   1           -0.50087 
     26     Zr2    Cu45      2.78961       0   1   0           -0.97866 
     27     Zr2    Zr46      2.79665       0   1   0           -3.31714 
     28     Zr2    Zr47      2.82953       0   1   0           -3.00125 
     29     Zr2    Zr50      3.39241       0   1   1           -0.96235 
     30     Zr2    Zr62      4.03511       0   1   0           -0.37034 
     31     Zr2    Cu69      4.15418       0   1   0           -0.03979 
     32     Zr2    Zr76      2.80452       1   0   0           -3.40091 
     33     Cu3     Cu4      3.42734       0   0   0           -0.05267 
     34     Cu3     Zr9      2.25227       0   0   0           -3.29911 
     35     Cu3    Cu10      2.90707       0   0   0           -0.18503 
     36     Cu3    Zr23      3.00061       0   1   0           -0.62383 
     37     Cu3    Zr26      3.50962       0   0   0           -0.27297 
     38     Cu3    Cu27      3.73558       0   0   0           -0.00191 
     39     Cu3    Cu28      2.12368       0   0   0           -1.28102 
     40     Cu3    Zr29      3.14924       0   0   0           -0.49090 
     41     Cu3    Zr47      3.79062       0   1   0           -0.13771 
     42     Cu3    Zr48      3.91695       0   1   0           -0.11463 
     43     Cu3    Zr76      3.39082       1   0   0           -0.23749 
     44     Cu3    Cu78      3.03627       1   0   0           -0.11590 
     45     Cu3    Zr85      3.63393       1   0   0           -0.19533 
     46     Cu4     Zr5      2.75943       0   0   0           -0.99981 
     47     Cu4     Cu6      2.63725       0   0   0           -0.40772 
     48     Cu4    Zr13      3.79899       0   0   0           -0.17449 
     49     Cu4    Zr23      2.53214       0   1   0           -1.82127 
     50     Cu4    Cu25      2.42118       0   1   0           -0.64073 
     51     Cu4    Cu28      4.05358       0   0   0           -0.00565 
     52     Cu4    Zr29      3.50483       0   0   0           -0.25171 
     53     Cu4    Zr48      3.11517       0   1   0           -0.53751 
     54     Cu4    Cu49      4.09905       0   1   0           -0.00321 
     55     Cu4    Zr77      4.12768       1   0   0           -0.08643 
     56     Cu4    Cu78      2.38833       1   0   0           -0.63379 
     57     Cu4    Zr79      3.31346       1   0   0           -0.32075 
     58     Cu4    Cu80      3.52726       1   0   0           -0.05959 
     59     Cu4    Zr85      2.57942       1   0   0           -1.74381 
     60     Cu4    Zr97      3.49857       1   1   0           -0.17507 
     61     Zr5     Cu6      3.20278       0   0   0           -0.51611 
     62     Zr5     Cu7      2.92907       0   0   0           -0.60621 
     63     Zr5    Zr13      3.83105       0   0   0           -0.50914 
     64     Zr5    Cu21      2.61823       0   1  -1           -1.28543 
     65     Zr5    Cu24      2.93402       0   1   0           -0.72911 
     66     Zr5    Cu25      2.67876       0   1   0           -1.32867 
     67     Zr5    Zr50      2.88359       0   1   0           -2.77300 
     68     Zr5    Zr55      3.50788       1   0   0           -0.77600 
     69     Zr5    Zr79      3.17513       1   0   0           -1.46670 
     70     Zr5    Cu80      2.28050       1   0   0           -3.04798 
     71     Zr5    Zr81      2.71443       1   0   0           -3.66108 
     72     Zr5    Zr85      4.08638       1   0   0           -0.37061 
     73     Zr5    Zr97      3.49376       1   1   0           -0.76909 
     74     Zr5    Cu99      3.58260       1   1   0           -0.15858 
     75     Cu6     Cu7      3.31649       0   0   0           -0.08923 
     76     Cu6    Zr13      2.39719       0   0   0           -2.45921 
     77     Cu6    Cu25      3.12436       0   1   0           -0.09194 
     78     Cu6    Zr29      3.16240       0   0   0           -0.42174 
     79     Cu6    Cu30      3.02955       0   0   0           -0.07680 
     80     Cu6    Zr31      2.74991       0   0   0           -1.05324 
     81     Cu6    Zr32      3.31439       0   0   0           -0.27110 
     82     Cu6    Zr48      2.44284       0   1   0           -2.30687 
     83     Cu6    Cu49      2.96928       0   1   0           -0.22890 
     84     Cu6    Zr50      2.97970       0   1   0           -0.67411 
     85     Cu6    Cu72      4.10141       0   1   0           -0.01638 
     86     Cu6    Cu80      4.00841       1   0   0           -0.01057 
     87     Cu6    Zr85      3.70784       1   0   0           -0.15345 
     88     Cu7    Zr13      3.04181       0   0   0           -0.59947 
     89     Cu7    Cu21      2.96641       0   1  -1           -0.14889 
     90     Cu7    Zr32      2.98359       0   0   0           -0.69149 
     91     Cu7    Zr46      3.95807       0   1  -1           -0.09049 
     92     Cu7    Zr50      2.54231       0   1   0           -1.67034 
     93     Cu7    Cu75      3.88353       1   0  -1           -0.01563 
     94     Cu7    Zr76      3.11201       1   0  -1           -0.48832 
     95     Cu7    Cu80      3.31282       1   0   0           -0.10663 
     96     Cu7    Zr81      3.10939       1   0   0           -0.48323 
     97     Cu7    Zr82      2.39660       1   0  -1           -2.39966 
     98     Cu7    Cu86      4.15661       1   0   0           -0.01264 
     99     Cu8    Cu10      3.57609       0   0   0           -0.01162 
    100     Cu8    Zr11      2.24991       0   0   0           -3.43962 
    101     Cu8    Zr13      3.76515       0   0   1           -0.13556 
    102     Cu8    Cu15      2.27993       0   0   1           -0.87363 
    103     Cu8    Zr16      4.17641       0   0   0           -0.02975 
    104     Cu8    Zr26      2.60547       0   0   0           -1.42940 
    105     Cu8    Cu30      3.87599       0   0   1           -0.01495 
    106     Cu8    Zr32      2.58336       0   0   1           -1.62322 
    107     Cu8    Zr33      3.35529       0   0   0           -0.26990 
    108     Cu8    Al34      3.47398       0   0   0           -0.26571 
    109     Cu8    Zr38      3.03594       0   0   1           -0.69908 
    110     Cu8    Cu39      2.94348       0   0   0           -0.12333 
    111     Cu8    Zr51      3.68418       0   0   0           -0.17041 
    112     Cu8    Cu61      3.97176       0   0   1           -0.02280 
    113     Cu8    Zr82      3.60099       1   0   0           -0.15506 
    114     Cu8    Zr87      3.81728       1   0   0           -0.13862 
    115     Zr9    Cu10      3.22434       0   0   0           -0.38536 
    116     Zr9    Zr11      4.01209       0   0   0           -0.34299 
    117     Zr9    Zr12      3.82381       0   0   0           -0.51109 
    118     Zr9    Cu56      4.05688       1   0   0           -0.13543 
    119     Zr9    Zr57      4.14283       1   0   0           -0.27354 
    120     Zr9    Cu63      3.91264       1   0   0           -0.14396 
    121     Zr9    Cu75      3.12272       1   0   0           -0.51700 
    122     Zr9    Zr76      3.44141       1   0   0           -0.94322 
    123     Zr9    Zr77      3.32349       1   0   0           -1.12403 
    124     Zr9    Cu78      2.99862       1   0   0           -0.71143 
    125     Zr9    Zr82      3.28825       1   0   0           -1.23176 
    126     Zr9    Zr83      2.39665       1   0   0           -7.90368 
    127     Zr9    Cu84      3.06444       1   0   0           -0.55273 
    128     Zr9    Zr85      3.30092       1   0   0           -1.17943 
    129    Cu10    Zr11      2.71116       0   0   0           -1.06675 
    130    Cu10    Zr12      2.48647       0   0   0           -1.96727 
    131    Cu10    Zr26      2.35187       0   0   0           -2.70823 
    132    Cu10    Cu27      4.06013       0   0   0           -0.02502 
    133    Cu10    Cu28      3.19879       0   0   0           -0.10957 
    134    Cu10    Zr29      2.83834       0   0   0           -0.96733 
    135    Cu10    Al34      3.35137       0   0   0           -0.30107 
    136    Cu10    Cu35      2.69643       0   0   0           -0.29639 
    137    Cu10    Cu36      2.83089       0   0   0           -0.13589 
    138    Cu10    Cu53      3.50608       0   0   0           -0.01493 
    139    Cu10    Zr83      3.97561       1   0   0           -0.09704 
    140    Cu10    Al89      4.11388       1   0   0           -0.05745 
    141    Zr11    Zr12      3.29966       0   0   0           -0.83234 
    142    Zr11    Cu15      2.81379       0   0   1           -0.90963 
    143    Zr11    Zr16      3.57387       0   0   0           -0.53619 
    144    Zr11    Zr26      3.44577       0   0   0           -1.00902 
    145    Zr11    Al34      3.36928       0   0   0           -0.80910 
    146    Zr11    Cu36      4.05120       0   0   0           -0.02267 
    147    Zr11    Cu39      3.20213       0   0   0           -0.31547 
    148    Zr11    Zr40      3.81753       0   0   0           -0.26531 
    149    Zr11    Zr82      3.60058       1   0   0           -0.69489 
    150    Zr11    Zr83      3.27990       1   0   0           -0.99325 
    151    Zr11    Zr87      2.74449       1   0   0           -3.37661 
    152    Zr11    Zr88      3.87663       1   0   0           -0.26401 
    153    Zr11    Al89      2.44976       1   0   0           -3.91694 
    154    Zr11    Cu94      4.01038       1   0   0           -0.06610 
    155    Zr12    Zr14      3.01258       0   0   0           -2.21078 
    156    Zr12    Cu17      3.28581       0   0   0           -0.23042 
    157    Zr12    Cu18      3.13116       0   0   0           -0.45576 
    158    Zr12    Zr29      3.67042       0   0   0           -0.74729 
    159    Zr12    Cu35      3.94594       0   0   0           -0.10231 
    160    Zr12    Cu36      2.56332       0   0   0           -1.72610 
    161    Zr12    Zr40      4.01827       0   0   0           -0.23551 
    162    Zr12    Zr83      3.43419       1   0   0           -0.71222 
    163    Zr12    Cu84      3.46653       1   0   0           -0.26314 
    164    Zr12    Zr85      3.79972       1   0   0           -0.47137 
    165    Zr12    Al89      2.96761       1   0   0           -1.67030 
    166    Zr12    Zr90      2.40299       1   0   0           -7.81867 
    167    Zr12    Cu91      2.98689       1   0   0           -0.68961 
    168    Zr13    Zr14      3.49917       0   0   0           -0.88288 
    169    Zr13    Cu15      3.29305       0   0   0           -0.37019 
    170    Zr13    Zr29      3.43196       0   0   0           -0.92319 
    171    Zr13    Cu30      2.75516       0   0   0           -1.11681 
    172    Zr13    Zr31      3.96252       0   0   0           -0.43170 
    173    Zr13    Zr32      2.94098       0   0   0           -2.47340 
    174    Zr13    Cu80      3.16990       1   0   0           -0.43535 
    175    Zr13    Zr82      3.14125       1   0  -1           -1.60513 
    176    Zr13    Zr85      3.14069       1   0   0           -1.78604 
    177    Zr13    Cu86      2.10636       1   0   0           -4.77055 
    178    Zr13    Cu91      3.72454       1   0   0           -0.21122 
    179    Zr14    Cu15      3.30193       0   0   0           -0.40168 
    180    Zr14    Cu18      2.53662       0   0   0           -1.75657 
    181    Zr14    Zr19      3.50287       0   0   0           -0.76457 
    182    Zr14    Cu20      2.84740       0   0   0           -0.94179 
    183    Zr14    Zr29      3.25028       0   0   0           -1.35037 
    184    Zr14    Cu30      3.16564       0   0   0           -0.46663 
    185    Zr14    Cu35      4.00135       0   0   0           -0.12673 
    186    Zr14    Cu36      2.84949       0   0   0           -0.95671 
    187    Zr14    Zr37      3.02465       0   0   0           -1.88695 
    188    Zr14    Zr38      2.90088       0   0   0           -2.71326 
    189    Zr14    Zr42      4.08851       0   0   0           -0.29390 
    190    Zr14    Zr85      4.07548       1   0   0           -0.33609 
    191    Zr14    Cu86      3.40718       1   0   0           -0.29216 
    192    Zr14    Cu91      2.86678       1   0   0           -0.87852 
    193    Zr14    Cu92      3.94879       1   0   0           -0.08425 
    194    Cu15    Zr16      3.15973       0   0  -1           -0.41848 
    195    Cu15    Zr19      3.84796       0   0   0           -0.10153 
    196    Cu15    Cu20      2.26699       0   0   0           -0.91644 
    197    Cu15    Cu30      4.03384       0   0   0           -0.01452 
    198    Cu15    Zr32      4.01409       0   0   0           -0.09478 
    199    Cu15    Zr38      2.68939       0   0   0           -1.31627 
    200    Cu15    Cu39      3.40852       0   0  -1           -0.05047 
    201    Cu15    Zr82      3.58269       1   0  -1           -0.16962 
    202    Cu15    Cu86      2.67761       1   0   0           -0.27929 
    203    Cu15    Zr87      2.44354       1   0  -1           -2.05174 
    204    Cu15    Cu91      4.10232       1   0   0           -0.00399 
    205    Cu15    Cu93      3.86707       1   0   0           -0.00236 
    206    Cu15   Zr100      3.81685       1   0   0           -0.10287 
    207    Zr16    Zr19      3.02538       0   0   1           -2.10080 
    208    Zr16    Cu20      3.43212       0   0   1           -0.27006 
    209    Zr16    Cu21      2.73225       0   0   0           -1.24213 
    210    Zr16    Cu22      2.98725       0   0   0           -0.67945 
    211    Zr16    Cu24      2.95521       0   0   1           -0.74717 
    212    Zr16    Zr38      3.75036       0   0   1           -0.48554 
    213    Zr16    Cu39      2.45517       0   0   0           -2.34007 
    214    Zr16    Zr40      3.72981       0   0   0           -0.49076 
    215    Zr16    Zr44      3.81498       0   0   1           -0.49285 
    216    Zr16    Cu45      3.15570       0   0   0           -0.54811 
    217    Zr16    Zr50      3.98806       0   0   1           -0.39563 
    218    Zr16    Zr87      3.83135       1   0   0           -0.37934 
    219    Zr16    Al89      3.26050       1   0   0           -1.27591 
    220    Zr16    Cu94      2.29327       1   0   0           -2.90345 
    221    Zr16    Cu95      3.76666       1   0   0           -0.13663 
    222    Zr16   Zr100      3.07841       1   0   1           -1.87884 
    223    Cu17    Cu18      2.54707       0   0   0           -0.44054 
    224    Cu17    Cu22      2.78962       0   0   0           -0.13321 
    225    Cu17    Zr23      3.29975       0   0   0           -0.39347 
    226    Cu17    Cu25      4.14653       0   0   0           -0.01062 
    227    Cu17    Cu36      3.21843       0   0   0           -0.08226 
    228    Cu17    Zr40      2.39131       0   0   0           -2.24717 
    229    Cu17    Zr42      2.78290       0   0   0           -1.11813 
    230    Cu17    Al89      2.63036       1   0   0           -1.08150 
    231    Cu17    Zr90      3.22957       1   0   0           -0.26871 
    232    Cu17    Cu94      3.77911       1   0   0            0.00191 
    233    Cu17    Zr96      2.43445       1   0   0           -1.88247 
    234    Cu17    Zr97      2.65076       1   0   0           -1.38318 
    235    Cu17    Cu98      4.07388       1   0   0           -0.01394 
    236    Cu18    Zr19      2.91990       0   0   0           -0.77618 
    237    Cu18    Cu20      2.69305       0   0   0           -0.31904 
    238    Cu18    Cu24      2.84199       0   0   0           -0.22730 
    239    Cu18    Cu25      3.89361       0   0   0            0.00224 
    240    Cu18    Cu36      3.32507       0   0   0           -0.06892 
    241    Cu18    Zr42      2.95079       0   0   0           -0.65969 
    242    Cu18    Zr90      3.03895       1   0   0           -0.59307 
    243    Cu18    Cu91      3.33286       1   0   0           -0.04562 
    244    Cu18    Cu92      2.54273       1   0   0           -0.49324 
    245    Cu18    Zr96      4.17812       1   0   0           -0.06402 
    246    Cu18    Zr97      2.54072       1   0   0           -1.69892 
    247    Cu18    Cu98      3.46076       1   0   0           -0.02488 
    248    Cu18    Cu99      3.84559       1   0   0           -0.00261 
    249    Zr19    Cu20      3.30849       0   0   0           -0.29884 
    250    Zr19    Cu21      3.85256       0   0  -1           -0.14083 
    251    Zr19    Cu24      2.08335       0   0   0           -4.57891 
    252    Zr19    Cu25      2.91938       0   0   0           -0.68557 
    253    Zr19    Zr37      3.73078       0   0   0           -0.50685 
    254    Zr19    Zr38      2.74466       0   0   0           -3.67422 
    255    Zr19    Cu39      3.80896       0   0  -1           -0.20067 
    256    Zr19    Zr42      2.91265       0   0   0           -2.51264 
    257    Zr19    Cu43      2.78142       0   0   0           -0.95845 
    258    Zr19    Zr44      3.15490       0   0   0           -1.53120 
    259    Zr19    Cu49      3.47113       0   0   0           -0.21594 
    260    Zr19    Zr50      3.61313       0   0   0           -0.66069 
    261    Zr19    Cu66      3.76986       0   0   0           -0.14214 
    262    Zr19    Zr97      3.85405       1   0   0           -0.57204 
    263    Cu20    Cu24      2.97614       0   0   0           -0.13761 
    264    Cu20    Zr38      3.72296       0   0   0           -0.17250 
    265    Cu20    Zr73      3.93180       1   0   0           -0.09139 
    266    Cu20    Cu86      2.86380       1   0   0           -0.19791 
    267    Cu20    Zr87      3.01184       1   0  -1           -0.66166 
    268    Cu20    Cu91      2.82459       1   0   0           -0.20142 
    269    Cu20    Cu92      2.11118       1   0   0           -1.20159 
    270    Cu20    Cu93      2.89471       1   0   0           -0.18812 
    271    Cu20    Cu98      4.18149       1   0   0           -0.04359 
    272    Cu20    Cu99      3.75236       1   0   0           -0.01198 
    273    Cu20   Zr100      2.46806       1   0   0           -2.01613 
    274    Cu21    Cu22      3.18085       0   0   0           -0.09812 
    275    Cu21    Cu24      2.69997       0   0   1           -0.32174 
    276    Cu21    Cu25      4.06884       0   0   1           -0.01118 
    277    Cu21    Cu45      3.43795       0   0   0           -0.06617 
    278    Cu21    Zr50      2.56400       0   0   1           -1.55156 
    279    Cu21    Cu74      4.12583       1   0   1           -0.00657 
    280    Cu21    Zr76      2.84955       1  -1   0           -0.85114 
    281    Cu21    Cu80      4.19080       1  -1   1           -0.03581 
    282    Cu21    Zr81      2.25147       1  -1   1           -3.18106 
    283    Cu21    Cu94      2.92802       1   0   0           -0.27764 
    284    Cu21    Cu95      3.34701       1   0   0           -0.03574 
    285    Cu21    Cu99      3.90091       1   0   1           -0.00278 
    286    Cu21   Zr100      3.60905       1   0   1           -0.14204 
    287    Cu22    Zr23      3.07091       0   0   0           -0.56631 
    288    Cu22    Cu39      3.85650       0   0   0            0.00032 
    289    Cu22    Zr40      2.42238       0   0   0           -2.24171 
    290    Cu22    Cu45      2.62902       0   0   0           -0.50070 
    291    Cu22    Zr47      3.85393       0   0   0           -0.10329 
    292    Cu22    Zr52      4.16560       1  -1   0           -0.07023 
    293    Cu22    Zr76      2.51786       1  -1   0           -1.97553 
    294    Cu22    Cu78      4.08511       1  -1   0           -0.00747 
    295    Cu22    Al89      3.13216       1   0   0           -0.55521 
    296    Cu22    Cu94      2.46852       1   0   0           -0.49713 
    297    Cu22    Cu95      3.81235       1   0   0            0.00081 
    298    Cu22    Zr96      2.98891       1   0   0           -0.60048 
    299    Zr23    Cu25      2.94324       0   0   0           -0.81914 
    300    Zr23    Cu28      3.62799       0  -1   0           -0.15247 
    301    Zr23    Zr40      3.79542       0   0   0           -0.52004 
    302    Zr23    Zr42      3.13681       0   0   0           -1.64203 
    303    Zr23    Zr47      2.76974       0   0   0           -3.63032 
    304    Zr23    Zr48      3.44664       0   0   0           -0.96240 
    305    Zr23    Zr76      3.44607       1  -1   0           -0.98099 
    306    Zr23    Cu78      2.46648       1  -1   0           -2.11543 
    307    Zr23    Zr96      4.03835       1   0   0           -0.33117 
    308    Zr23    Zr97      3.35501       1   0   0           -1.06532 
    309    Cu24    Cu25      2.79304       0   0   0           -0.22103 
    310    Cu24    Zr42      3.85062       0   0   0           -0.09748 
    311    Cu24    Zr50      3.58062       0   0   0           -0.19065 
    312    Cu24    Zr79      4.12490       1  -1   0           -0.07507 
    313    Cu24    Zr81      4.05034       1  -1   0           -0.08154 
    314    Cu24    Cu92      3.29060       1   0   0           -0.02777 
    315    Cu24    Cu94      4.16553       1   0  -1           -0.00553 
    316    Cu24    Zr97      2.69868       1   0   0           -1.18721 
    317    Cu24    Cu99      2.65910       1   0   0           -0.41857 
    318    Cu24   Zr100      2.85170       1   0   0           -0.96038 
    319    Cu25    Zr42      2.58927       0   0   0           -1.60093 
    320    Cu25    Cu43      3.37564       0   0   0           -0.02874 
    321    Cu25    Zr48      3.31222       0   0   0           -0.37683 
    322    Cu25    Cu49      2.47993       0   0   0           -0.60388 
    323    Cu25    Zr50      3.04679       0   0   0           -0.62067 
    324    Cu25    Cu71      3.81647       0   0   0           -0.00836 
    325    Cu25    Cu78      4.05505       1  -1   0           -0.00925 
    326    Cu25    Zr79      4.11370       1  -1   0           -0.04270 
    327    Cu25    Zr97      2.82141       1   0   0           -0.90304 
    328    Zr26    Cu27      2.30204       0   0   0           -3.13576 
    329    Zr26    Cu28      3.00508       0   0   0           -0.65546 
    330    Zr26    Zr32      3.09225       0   0   1           -1.77869 
    331    Zr26    Zr33      4.11537       0   0   0           -0.19343 
    332    Zr26    Al34      3.20375       0   0   0           -1.20095 
    333    Zr26    Cu35      3.06394       0   0   0           -0.54127 
    334    Zr26    Zr46      4.02442       0   1   0           -0.39217 
    335    Zr26    Zr51      3.06811       0   0   0           -1.89591 
    336    Zr26    Zr52      4.10412       0   0   0           -0.38306 
    337    Zr26    Cu53      2.58147       0   0   0           -1.47704 
    338    Zr26    Zr57      3.97473       0   0   0           -0.28953 
    339    Cu27    Cu28      2.31191       0   0   0           -0.81719 
    340    Cu27    Zr32      3.70319       0   0   1           -0.16949 
    341    Cu27    Zr46      2.73434       0   1   0           -1.18107 
    342    Cu27    Zr47      3.64821       0   1   0           -0.13669 
    343    Cu27    Zr51      3.31812       0   0   0           -0.31316 
    344    Cu27    Zr52      3.35757       0   0   0           -0.27845 
    345    Cu27    Cu53      2.58172       0   0   0           -0.38475 
    346    Cu27    Cu64      3.86775       0   1   0           -0.00562 
    347    Cu27    Cu68      3.89245       0   1   0           -0.01848 
    348    Cu27    Cu69      1.94044       0   1   0           -1.89372 
    349    Cu27    Zr70      2.78738       0   1   0           -0.97280 
    350    Cu27    Cu74      4.14005       0   1   1           -0.00672 
    351    Cu27    Cu95      3.56585       0   1   0           -0.01207 
    352    Cu28    Zr29      2.67773       0   0   0           -1.34531 
    353    Cu28    Cu35      3.92277       0   0   0           -0.00393 
    354    Cu28    Zr47      3.05445       0   1   0           -0.60288 
    355    Cu28    Zr48      2.71322       0   1   0           -1.25095 
    356    Cu28    Cu53      3.01724       0   0   0           -0.10554 
    357    Cu28    Zr54      3.99585       0   0   0           -0.08620 
    358    Cu28    Cu64      4.11892       0   1   0           -0.00938 
    359    Cu28    Cu69      3.52378       0   1   0           -0.01150 
    360    Cu28    Zr70      2.91881       0   1   0           -0.81391 
    361    Cu28    Cu71      4.19064       0   1   0           -0.02165 
    362    Zr29    Cu30      2.84255       0   0   0           -0.90569 
    363    Zr29    Cu35      3.30170       0   0   0           -0.39999 
    364    Zr29    Cu36      3.74295       0   0   0           -0.15286 
    365    Zr29    Zr48      3.05591       0   1   0           -2.06708 
    366    Zr29    Cu53      3.76228       0   0   0           -0.11749 
    367    Zr29    Zr54      3.12318       0   0   0           -1.75467 
    368    Zr29    Zr85      2.98930       1   0   0           -2.42063 
    369    Cu30    Zr31      2.55100       0   0   0           -1.67492 
    370    Cu30    Zr32      2.94562       0   0   0           -0.68535 
    371    Cu30    Zr37      3.42910       0   0   0           -0.24286 
    372    Cu30    Zr38      3.09293       0   0   0           -0.56487 
    373    Cu30    Zr48      3.94695       0   1   0           -0.06747 
    374    Cu30    Zr54      2.57385       0   0   0           -1.58785 
    375    Cu30    Zr55      3.53075       0   0   0           -0.25569 
    376    Cu30    Cu61      2.66294       0   0   0           -0.30957 
    377    Cu30    Cu72      3.70917       0   1   0           -0.03404 
    378    Zr31    Zr32      2.64999       0   0   0           -4.43635 
    379    Zr31    Zr46      3.09085       0   1  -1           -1.67329 
    380    Zr31    Zr48      3.30731       0   1   0           -1.21208 
    381    Zr31    Cu49      3.50426       0   1   0           -0.25542 
    382    Zr31    Zr50      4.04028       0   1   0           -0.34053 
    383    Zr31    Zr51      3.82413       0   0  -1           -0.48209 
    384    Zr31    Zr54      3.57955       0   0   0           -0.82964 
    385    Zr31    Zr55      3.36747       0   0   0           -0.95883 
    386    Zr31    Cu61      3.86891       0   0   0           -0.09097 
    387    Zr31    Cu68      3.80064       0   1  -1           -0.12180 
    388    Zr31    Cu72      2.49552       0   1   0           -1.96341 
    389    Zr31    Zr73      3.16850       0   1   0           -1.59421 
    390    Zr31    Cu74      2.51726       0   1   0           -1.74719 
    391    Zr31    Cu99      3.44757       0   1   0           -0.27159 
    392    Zr32    Zr46      2.84596       0   1  -1           -2.89508 
    393    Zr32    Zr50      3.95403       0   1   0           -0.39852 
    394    Zr32    Zr51      3.32842       0   0  -1           -1.09317 
    395    Zr32    Cu61      4.05689       0   0   0           -0.05331 
    396    Zr32    Cu74      3.90424       0   1   0           -0.11988 
    397    Zr32    Zr82      3.68736       1   0  -1           -0.65918 
    398    Zr33    Al34      2.85564       0   0   0           -2.03657 
    399    Zr33    Zr38      2.91426       0   0   1           -2.56958 
    400    Zr33    Cu39      2.16853       0   0   0           -3.55862 
    401    Zr33    Zr44      3.55626       0   0   1           -0.81180 
    402    Zr33    Zr51      3.07884       0   0   0           -1.83346 
    403    Zr33    Cu56      3.17359       0   0   0           -0.46226 
    404    Zr33    Zr57      2.99093       0   0   0           -1.76884 
    405    Zr33    Zr60      2.88127       0   0   1           -2.85654 
    406    Zr33    Cu61      2.88368       0   0   1           -0.83206 
    407    Zr33    Zr62      3.80365       0   0   0           -0.45301 
    408    Zr33    Cu66      3.16627       0   0   1           -0.45024 
    409    Zr33    Cu67      3.95078       0   0   1           -0.07563 