
     Program PWSCF v.6.2 (svn rev. 13949:13950) starts on 19Apr2019 at 16:57:22 

     This program is part of the open-source Quantum ESPRESSO suite
     for quantum simulation of materials; please cite
         "P. Giannozzi et al., J. Phys.:Condens. Matter 21 395502 (2009);
         "P. Giannozzi et al., J. Phys.:Condens. Matter 29 465901 (2017);
          URL http://www.quantum-espresso.org", 
     in publications or presentations arising from this work. More details at
     http://www.quantum-espresso.org/quote

     Parallel version (MPI & OpenMP), running on     192 processor cores
     Number of MPI processes:               192
     Threads/MPI process:                     1

     MPI processes distributed on     8 nodes
     K-points division:     npool     =       8
     R & G space division:  proc/nbgrp/npool/nimage =      24
     Waiting for input...
     Reading input from standard input

     Current dimensions of program PWSCF are:
     Max number of different atomic species (ntypx) = 10
     Max number of k-points (npk) =  40000
     Max angular momentum in pseudopotentials (lmaxx) =  3
               file Al.aryjr-1.0.0-ld1.UPF: wavefunction(s)  3S 3P renormalized
               file Cu.aryjr-1.0.0-ld1.UPF: wavefunction(s)  4S 3P 3D renormalized
               file Zr.aryjr-1.0.0-ld1.UPF: wavefunction(s)  4S 4P renormalized

     Subspace diagonalization in iterative solution of the eigenvalue problem:
     one sub-group per band group will be used
     scalapack distributed-memory algorithm (size of sub-group:  3*  3 procs)

 
     Parallelization info
     --------------------
     sticks:   dense  smooth     PW     G-vecs:    dense   smooth      PW
     Min         959     479    123               109501    38711    5087
     Max         960     480    124               109504    38714    5092
     Sum       23035   11517   2975              2628049   929093  122183
 

     Title: 
     Zr49Cu49Al2                                                                


     bravais-lattice index     =            0
     lattice parameter (alat)  =      22.7304  a.u.
     unit-cell volume          =   11744.1708 (a.u.)^3
     number of atoms/cell      =          100
     number of atomic types    =            3
     number of electrons       =      1525.00
     number of Kohn-Sham states=         1086
     kinetic-energy cutoff     =      70.0000  Ry
     charge density cutoff     =     560.0000  Ry
     convergence threshold     =      1.0E-06
     mixing beta               =       0.4000
     number of iterations used =            8  plain     mixing
     Exchange-correlation      =  SLA  PW   PBX  PBC ( 1  4  3  4 0 0)

     celldm(1)=  22.730420  celldm(2)=   0.000000  celldm(3)=   0.000000
     celldm(4)=   0.000000  celldm(5)=   0.000000  celldm(6)=   0.000000

     crystal axes: (cart. coord. in units of alat)
               a(1) = (   1.000000   0.000000   0.000000 )  
               a(2) = (   0.500000   1.000000   0.000000 )  
               a(3) = (   0.000000   0.000000   1.000000 )  

     reciprocal axes: (cart. coord. in units 2 pi/alat)
               b(1) = (  1.000000 -0.500000  0.000000 )  
               b(2) = (  0.000000  1.000000  0.000000 )  
               b(3) = (  0.000000  0.000000  1.000000 )  


     PseudoPot. # 1 for Al read from file:
     /scratch/rmnvm/ary.junior/UPFs/Al.aryjr-1.0.0-ld1.UPF
     MD5 check sum: 23518be3108914e66f28d0b5ae5ea896
     Pseudo is Projector augmented-wave + core cor, Zval =  3.0
     Generated using "atomic" code by A. Dal Corso  v.5.3.0 svn rev. 11974
     Shape of augmentation charge: PSQ
     Using radial grid of 1135 points,  4 beta functions with: 
                l(1) =   0
                l(2) =   0
                l(3) =   1
                l(4) =   1
     Q(r) pseudized with 0 coefficients 


     PseudoPot. # 2 for Cu read from file:
     /scratch/rmnvm/ary.junior/UPFs/Cu.aryjr-1.0.0-ld1.UPF
     MD5 check sum: 9308548b6d8348cb0f7fa79efd90ef1e
     Pseudo is Projector augmented-wave + core cor, Zval = 19.0
     Generated using "atomic" code by A. Dal Corso  v.5.3.0 svn rev. 11974
     Shape of augmentation charge: PSQ
     Using radial grid of 1199 points,  6 beta functions with: 
                l(1) =   0
                l(2) =   0
                l(3) =   1
                l(4) =   1
                l(5) =   2
                l(6) =   2
     Q(r) pseudized with 0 coefficients 


     PseudoPot. # 3 for Zr read from file:
     /scratch/rmnvm/ary.junior/UPFs/Zr.aryjr-1.0.0-ld1.UPF
     MD5 check sum: 20f111a850f3481eb9ed9a4dbb9cca44
     Pseudo is Projector augmented-wave + core cor, Zval = 12.0
     Generated using "atomic" code by A. Dal Corso  v.5.3.0 svn rev. 11974
     Shape of augmentation charge: PSQ
     Using radial grid of 1225 points,  6 beta functions with: 
                l(1) =   0
                l(2) =   0
                l(3) =   1
                l(4) =   1
                l(5) =   2
                l(6) =   2
     Q(r) pseudized with 0 coefficients 


     atomic species   valence    mass     pseudopotential
        Al             3.00    26.98150     Al( 1.00)
        Cu            19.00    63.54630     Cu( 1.00)
        Zr            12.00    91.22400     Zr( 1.00)

     No symmetry found


                                    s                        frac. trans.

      isym =  1     identity                                     

 cryst.   s( 1) = (     1          0          0      )
                  (     0          1          0      )
                  (     0          0          1      )

 cart.    s( 1) = (  1.0000000  0.0000000  0.0000000 )
                  (  0.0000000  1.0000000  0.0000000 )
                  (  0.0000000  0.0000000  1.0000000 )


   Cartesian axes

     site n.     atom                  positions (alat units)
         1           Cu  tau(   1) = (   0.2671335   0.2277590   0.1567850  )
         2           Zr  tau(   2) = (   0.2537415  -0.0190070   0.1788030  )
         3           Cu  tau(   3) = (   0.2428410   0.1315620   0.3373750  )
         4           Cu  tau(   4) = (   0.1346565   0.0611130   0.5913870  )
         5           Zr  tau(   5) = (   0.0342645   0.0327190   0.7957000  )
         6           Cu  tau(   6) = (   0.2931450   0.0656340   0.7428210  )
         7           Cu  tau(   7) = (   0.1689605   0.1023710   0.9862360  )
         8           Cu  tau(   8) = (   0.4382515   0.3549830   0.0459350  )
         9           Zr  tau(   9) = (   0.1226345   0.2717730   0.3065150  )
        10           Cu  tau(  10) = (   0.3828500   0.3285600   0.3368330  )
        11           Zr  tau(  11) = (   0.3501860   0.4699240   0.1643430  )
        12           Zr  tau(  12) = (   0.3091170   0.4952260   0.4343910  )
        13           Zr  tau(  13) = (   0.2646995   0.2523210   0.8065140  )
        14           Zr  tau(  14) = (   0.4075010   0.4605960   0.6620950  )
        15           Cu  tau(  15) = (   0.3538000   0.4794900   0.9306380  )
        16           Zr  tau(  16) = (   0.4677715   0.6997470   0.0172560  )
        17           Cu  tau(  17) = (   0.4437405   0.7324330   0.4191720  )
        18           Cu  tau(  18) = (   0.3921835   0.6651690   0.6132270  )
        19           Zr  tau(  19) = (   0.5626955   0.6737150   0.7857960  )
        20           Cu  tau(  20) = (   0.2959795   0.6101890   0.8077750  )
        21           Cu  tau(  21) = (   0.5017750   0.9211880  -0.0202190  )
        22           Cu  tau(  22) = (   0.5296785   0.8230530   0.2237520  )
        23           Zr  tau(  23) = (   0.6387625   0.9250130   0.4308390  )
        24           Cu  tau(  24) = (   0.4491420   0.8041300   0.7956290  )
        25           Cu  tau(  25) = (   0.6310165   0.8760390   0.6704530  )
        26           Zr  tau(  26) = (   0.4889520   0.2235980   0.2105170  )
        27           Cu  tau(  27) = (   0.5215690   0.0370620   0.2382310  )
        28           Cu  tau(  28) = (   0.4005080   0.0675060   0.3843810  )
        29           Zr  tau(  29) = (   0.3753070   0.2188980   0.5456370  )
        30           Cu  tau(  30) = (   0.4862390   0.2269500   0.7541460  )
        31           Zr  tau(  31) = (   0.5042285   0.0266550   0.8215010  )
        32           Zr  tau(  32) = (   0.4113675   0.1538590   0.9755560  )
        33           Zr  tau(  33) = (   0.7098670   0.4176720   0.0356180  )
        34           Al  tau(  34) = (   0.6161845   0.4541170   0.2506940  )
        35           Cu  tau(  35) = (   0.5917620   0.3295000   0.4181220  )
        36           Cu  tau(  36) = (   0.5205990   0.4786180   0.4547210  )
        37           Zr  tau(  37) = (   0.6538195   0.4213950   0.6301280  )
        38           Zr  tau(  38) = (   0.5602695   0.4543610   0.8486030  )
        39           Cu  tau(  39) = (   0.5889515   0.5456970   0.0742360  )
        40           Zr  tau(  40) = (   0.5774320   0.6436620   0.3018270  )
        41           Zr  tau(  41) = (   0.7674930   0.5775920   0.4392130  )
        42           Zr  tau(  42) = (   0.6282620   0.6952180   0.5536880  )
        43           Cu  tau(  43) = (   0.7710865   0.6339770   0.6937910  )
        44           Zr  tau(  44) = (   0.7749695   0.6894230   0.9390530  )
        45           Cu  tau(  45) = (   0.7053045   0.7658970   0.1068750  )
        46           Zr  tau(  46) = (   0.9427790   0.9323300   0.0524910  )
        47           Zr  tau(  47) = (   0.8275875   0.8280610   0.3415760  )
        48           Zr  tau(  48) = (   0.8762335   0.9679630   0.5853350  )
        49           Cu  tau(  49) = (   0.8098530   0.8197080   0.7561930  )
        50           Zr  tau(  50) = (   0.7031500   0.9077680   0.9111820  )
        51           Zr  tau(  51) = (   0.6777720   0.1641180   0.0496730  )
        52           Zr  tau(  52) = (   0.7974030   0.0797000   0.2343880  )
        53           Cu  tau(  53) = (   0.6274595   0.1728210   0.3663910  )
        54           Zr  tau(  54) = (   0.6266855   0.1819230   0.5991130  )
        55           Zr  tau(  55) = (   0.7613240   0.1353580   0.7999840  )
        56           Cu  tau(  56) = (   0.9466365   0.4938770   0.1236250  )
        57           Zr  tau(  57) = (   0.7902460   0.3496160   0.2608670  )
        58           Cu  tau(  58) = (   0.8078415   0.3829110   0.4899580  )
        59           Zr  tau(  59) = (   0.9119285   0.3425790   0.6748370  )
        60           Zr  tau(  60) = (   0.9200330   0.3575700   0.9376560  )
        61           Cu  tau(  61) = (   0.6822640   0.2943340   0.8319010  )
        62           Zr  tau(  62) = (   0.8520615   0.6602630   0.1802780  )
        63           Cu  tau(  63) = (   0.9475690   0.5422660   0.3511770  )
        64           Cu  tau(  64) = (   1.0264290   0.7490820   0.3811960  )
        65           Zr  tau(  65) = (   0.9581440   0.5790940   0.6194550  )
        66           Cu  tau(  66) = (   0.8268250   0.5080700   0.8178100  )
        67           Cu  tau(  67) = (   0.9687125   0.6087910   0.9696280  )
        68           Cu  tau(  68) = (   1.0408380   0.7910700   0.0288590  )
        69           Cu  tau(  69) = (   1.0803360   0.8868360   0.2400110  )
        70           Zr  tau(  70) = (   1.1183250   0.9759980   0.4397490  )
        71           Cu  tau(  71) = (   0.9192495   0.7794890   0.5795060  )
        72           Cu  tau(  72) = (   1.1048385   0.9611470   0.6522980  )
        73           Zr  tau(  73) = (   1.0093150   0.7657160   0.7858100  )
        74           Cu  tau(  74) = (   1.1630385   0.9527310   0.9360050  )
        75           Cu  tau(  75) = (   0.9324320   0.2687160   0.1298460  )
        76           Zr  tau(  76) = (   1.0259090   0.0294580   0.1891070  )
        77           Zr  tau(  77) = (   0.8799655   0.2250570   0.4300980  )
        78           Cu  tau(  78) = (   1.0144500   0.0880180   0.4356580  )
        79           Zr  tau(  79) = (   0.8596190   0.0724900   0.6018010  )
        80           Cu  tau(  80) = (   1.0032690   0.2197080   0.8001380  )
        81           Zr  tau(  81) = (   0.9111915   0.0849730   0.9774930  )
        82           Zr  tau(  82) = (   1.1453370   0.2941060   0.0350030  )
        83           Zr  tau(  83) = (   1.0921395   0.4609810   0.2520130  )
        84           Cu  tau(  84) = (   1.0308420   0.4350980   0.4791560  )
        85           Zr  tau(  85) = (   1.1358070   0.2752820   0.5806030  )
        86           Cu  tau(  86) = (   1.1776110   0.4038440   0.8175500  )
        87           Zr  tau(  87) = (   1.1875735   0.5484550   0.0248790  )
        88           Zr  tau(  88) = (   1.1245655   0.6984470   0.1916040  )
        89           Al  tau(  89) = (   1.3323275   0.6548750   0.2477300  )
        90           Zr  tau(  90) = (   1.1905455   0.6537190   0.4614320  )
        91           Cu  tau(  91) = (   1.1729965   0.4981350   0.6420570  )
        92           Cu  tau(  92) = (   1.2073220   0.7178360   0.7012020  )
        93           Cu  tau(  93) = (   1.0618150   0.5560280   0.8199790  )
        94           Cu  tau(  94) = (   1.3498080   0.8012760   0.1273720  )
        95           Cu  tau(  95) = (   1.2511310   0.9101280   0.1001260  )
        96           Zr  tau(  96) = (   1.3184575   0.8729030   0.3447760  )
        97           Zr  tau(  97) = (   1.4124005   0.8735870   0.5854800  )
        98           Cu  tau(  98) = (   1.1558185   0.8240090   0.5722210  )
        99           Cu  tau(  99) = (   1.2620510   0.9168100   0.7614030  )
       100           Zr  tau( 100) = (   1.2462750   0.7776480   0.9154230  )

   Crystallographic axes

     site n.     atom                  positions (cryst. coord.)
         1           Cu  tau(   1) = (  0.1532540  0.2277590  0.1567850  )
         2           Zr  tau(   2) = (  0.2632450 -0.0190070  0.1788030  )
         3           Cu  tau(   3) = (  0.1770600  0.1315620  0.3373750  )
         4           Cu  tau(   4) = (  0.1041000  0.0611130  0.5913870  )
         5           Zr  tau(   5) = (  0.0179050  0.0327190  0.7957000  )
         6           Cu  tau(   6) = (  0.2603280  0.0656340  0.7428210  )
         7           Cu  tau(   7) = (  0.1177750  0.1023710  0.9862360  )
         8           Cu  tau(   8) = (  0.2607600  0.3549830  0.0459350  )
         9           Zr  tau(   9) = ( -0.0132520  0.2717730  0.3065150  )
        10           Cu  tau(  10) = (  0.2185700  0.3285600  0.3368330  )
        11           Zr  tau(  11) = (  0.1152240  0.4699240  0.1643430  )
        12           Zr  tau(  12) = (  0.0615040  0.4952260  0.4343910  )
        13           Zr  tau(  13) = (  0.1385390  0.2523210  0.8065140  )
        14           Zr  tau(  14) = (  0.1772030  0.4605960  0.6620950  )
        15           Cu  tau(  15) = (  0.1140550  0.4794900  0.9306380  )
        16           Zr  tau(  16) = (  0.1178980  0.6997470  0.0172560  )
        17           Cu  tau(  17) = (  0.0775240  0.7324330  0.4191720  )
        18           Cu  tau(  18) = (  0.0595990  0.6651690  0.6132270  )
        19           Zr  tau(  19) = (  0.2258380  0.6737150  0.7857960  )
        20           Cu  tau(  20) = ( -0.0091150  0.6101890  0.8077750  )
        21           Cu  tau(  21) = (  0.0411810  0.9211880 -0.0202190  )
        22           Cu  tau(  22) = (  0.1181520  0.8230530  0.2237520  )
        23           Zr  tau(  23) = (  0.1762560  0.9250130  0.4308390  )
        24           Cu  tau(  24) = (  0.0470770  0.8041300  0.7956290  )
        25           Cu  tau(  25) = (  0.1929970  0.8760390  0.6704530  )
        26           Zr  tau(  26) = (  0.3771530  0.2235980  0.2105170  )
        27           Cu  tau(  27) = (  0.5030380  0.0370620  0.2382310  )
        28           Cu  tau(  28) = (  0.3667550  0.0675060  0.3843810  )
        29           Zr  tau(  29) = (  0.2658580  0.2188980  0.5456370  )
        30           Cu  tau(  30) = (  0.3727640  0.2269500  0.7541460  )
        31           Zr  tau(  31) = (  0.4909010  0.0266550  0.8215010  )
        32           Zr  tau(  32) = (  0.3344380  0.1538590  0.9755560  )
        33           Zr  tau(  33) = (  0.5010310  0.4176720  0.0356180  )
        34           Al  tau(  34) = (  0.3891260  0.4541170  0.2506940  )
        35           Cu  tau(  35) = (  0.4270120  0.3295000  0.4181220  )
        36           Cu  tau(  36) = (  0.2812900  0.4786180  0.4547210  )
        37           Zr  tau(  37) = (  0.4431220  0.4213950  0.6301280  )
        38           Zr  tau(  38) = (  0.3330890  0.4543610  0.8486030  )
        39           Cu  tau(  39) = (  0.3161030  0.5456970  0.0742360  )
        40           Zr  tau(  40) = (  0.2556010  0.6436620  0.3018270  )
        41           Zr  tau(  41) = (  0.4786970  0.5775920  0.4392130  )
        42           Zr  tau(  42) = (  0.2806530  0.6952180  0.5536880  )
        43           Cu  tau(  43) = (  0.4540980  0.6339770  0.6937910  )
        44           Zr  tau(  44) = (  0.4302580  0.6894230  0.9390530  )
        45           Cu  tau(  45) = (  0.3223560  0.7658970  0.1068750  )
        46           Zr  tau(  46) = (  0.4766140  0.9323300  0.0524910  )
        47           Zr  tau(  47) = (  0.4135570  0.8280610  0.3415760  )
        48           Zr  tau(  48) = (  0.3922520  0.9679630  0.5853350  )
        49           Cu  tau(  49) = (  0.3999990  0.8197080  0.7561930  )
        50           Zr  tau(  50) = (  0.2492660  0.9077680  0.9111820  )
        51           Zr  tau(  51) = (  0.5957130  0.1641180  0.0496730  )
        52           Zr  tau(  52) = (  0.7575530  0.0797000  0.2343880  )
        53           Cu  tau(  53) = (  0.5410490  0.1728210  0.3663910  )
        54           Zr  tau(  54) = (  0.5357240  0.1819230  0.5991130  )
        55           Zr  tau(  55) = (  0.6936450  0.1353580  0.7999840  )
        56           Cu  tau(  56) = (  0.6996980  0.4938770  0.1236250  )
        57           Zr  tau(  57) = (  0.6154380  0.3496160  0.2608670  )
        58           Cu  tau(  58) = (  0.6163860  0.3829110  0.4899580  )
        59           Zr  tau(  59) = (  0.7406390  0.3425790  0.6748370  )
        60           Zr  tau(  60) = (  0.7412480  0.3575700  0.9376560  )
        61           Cu  tau(  61) = (  0.5350970  0.2943340  0.8319010  )
        62           Zr  tau(  62) = (  0.5219300  0.6602630  0.1802780  )
        63           Cu  tau(  63) = (  0.6764360  0.5422660  0.3511770  )
        64           Cu  tau(  64) = (  0.6518880  0.7490820  0.3811960  )
        65           Zr  tau(  65) = (  0.6685970  0.5790940  0.6194550  )
        66           Cu  tau(  66) = (  0.5727900  0.5080700  0.8178100  )
        67           Cu  tau(  67) = (  0.6643170  0.6087910  0.9696280  )
        68           Cu  tau(  68) = (  0.6453030  0.7910700  0.0288590  )
        69           Cu  tau(  69) = (  0.6369180  0.8868360  0.2400110  )
        70           Zr  tau(  70) = (  0.6303260  0.9759980  0.4397490  )
        71           Cu  tau(  71) = (  0.5295050  0.7794890  0.5795060  )
        72           Cu  tau(  72) = (  0.6242650  0.9611470  0.6522980  )
        73           Zr  tau(  73) = (  0.6264570  0.7657160  0.7858100  )
        74           Cu  tau(  74) = (  0.6866730  0.9527310  0.9360050  )
        75           Cu  tau(  75) = (  0.7980740  0.2687160  0.1298460  )
        76           Zr  tau(  76) = (  1.0111800  0.0294580  0.1891070  )
        77           Zr  tau(  77) = (  0.7674370  0.2250570  0.4300980  )
        78           Cu  tau(  78) = (  0.9704410  0.0880180  0.4356580  )
        79           Zr  tau(  79) = (  0.8233740  0.0724900  0.6018010  )
        80           Cu  tau(  80) = (  0.8934150  0.2197080  0.8001380  )
        81           Zr  tau(  81) = (  0.8687050  0.0849730  0.9774930  )
        82           Zr  tau(  82) = (  0.9982840  0.2941060  0.0350030  )
        83           Zr  tau(  83) = (  0.8616490  0.4609810  0.2520130  )
        84           Cu  tau(  84) = (  0.8132930  0.4350980  0.4791560  )
        85           Zr  tau(  85) = (  0.9981660  0.2752820  0.5806030  )
        86           Cu  tau(  86) = (  0.9756890  0.4038440  0.8175500  )
        87           Zr  tau(  87) = (  0.9133460  0.5484550  0.0248790  )
        88           Zr  tau(  88) = (  0.7753420  0.6984470  0.1916040  )
        89           Al  tau(  89) = (  1.0048900  0.6548750  0.2477300  )
        90           Zr  tau(  90) = (  0.8636860  0.6537190  0.4614320  )
        91           Cu  tau(  91) = (  0.9239290  0.4981350  0.6420570  )
        92           Cu  tau(  92) = (  0.8484040  0.7178360  0.7012020  )
        93           Cu  tau(  93) = (  0.7838010  0.5560280  0.8199790  )
        94           Cu  tau(  94) = (  0.9491700  0.8012760  0.1273720  )
        95           Cu  tau(  95) = (  0.7960670  0.9101280  0.1001260  )
        96           Zr  tau(  96) = (  0.8820060  0.8729030  0.3447760  )
        97           Zr  tau(  97) = (  0.9756070  0.8735870  0.5854800  )
        98           Cu  tau(  98) = (  0.7438140  0.8240090  0.5722210  )
        99           Cu  tau(  99) = (  0.8036460  0.9168100  0.7614030  )
       100           Zr  tau( 100) = (  0.8574510  0.7776480  0.9154230  )

     number of k points=     8  Fermi-Dirac smearing, width (Ry)=  0.0080
                       cart. coord. in units 2pi/alat
        k(    1) = (   0.2500000   0.1250000   0.2500000), wk =   0.2500000
        k(    2) = (   0.2500000   0.1250000  -0.2500000), wk =   0.2500000
        k(    3) = (   0.2500000  -0.3750000   0.2500000), wk =   0.2500000
        k(    4) = (   0.2500000  -0.3750000  -0.2500000), wk =   0.2500000
        k(    5) = (  -0.2500000   0.3750000   0.2500000), wk =   0.2500000
        k(    6) = (  -0.2500000   0.3750000  -0.2500000), wk =   0.2500000
        k(    7) = (  -0.2500000  -0.1250000   0.2500000), wk =   0.2500000
        k(    8) = (  -0.2500000  -0.1250000  -0.2500000), wk =   0.2500000

                       cryst. coord.
        k(    1) = (   0.2500000   0.2500000   0.2500000), wk =   0.2500000
        k(    2) = (   0.2500000   0.2500000  -0.2500000), wk =   0.2500000
        k(    3) = (   0.2500000  -0.2500000   0.2500000), wk =   0.2500000
        k(    4) = (   0.2500000  -0.2500000  -0.2500000), wk =   0.2500000
        k(    5) = (  -0.2500000   0.2500000   0.2500000), wk =   0.2500000
        k(    6) = (  -0.2500000   0.2500000  -0.2500000), wk =   0.2500000
        k(    7) = (  -0.2500000  -0.2500000   0.2500000), wk =   0.2500000
        k(    8) = (  -0.2500000  -0.2500000  -0.2500000), wk =   0.2500000

     Dense  grid:  2628049 G-vectors     FFT dimensions: ( 180, 192, 180)

     Smooth grid:   929093 G-vectors     FFT dimensions: ( 125, 135, 125)

     Dynamical RAM for                 wfc:      80.19 MB

     Dynamical RAM for     wfc (w. buffer):      80.19 MB

     Dynamical RAM for           str. fact:       5.01 MB

     Dynamical RAM for           local pot:       0.00 MB

     Dynamical RAM for          nlocal pot:     131.43 MB

     Dynamical RAM for                qrad:      20.58 MB

     Dynamical RAM for          rho,v,vnew:      11.34 MB

     Dynamical RAM for               rhoin:       3.78 MB

     Dynamical RAM for            rho*nmix:      26.73 MB

     Dynamical RAM for           G-vectors:       6.56 MB

     Dynamical RAM for          h,s,v(r/c):      95.98 MB

     Dynamical RAM for          <psi|beta>:      29.50 MB

     Dynamical RAM for                 psi:     320.75 MB

     Dynamical RAM for                hpsi:     320.75 MB

     Dynamical RAM for                spsi:     320.75 MB

     Dynamical RAM for      wfcinit/wfcrot:     197.10 MB

     Dynamical RAM for           addusdens:     392.66 MB

     Dynamical RAM for          addusforce:     809.94 MB

     Estimated static dynamical RAM per process >     302.86 MB

     Estimated max dynamical RAM per process >       1.36 GB

     Estimated total dynamical RAM >     260.73 GB

     Initial potential from superposition of free atoms

     starting charge 1524.87645, renormalised to 1525.00000
     Starting wfc are 1135 randomized atomic wfcs
     Checking if some PAW data can be deallocated... 
       PAW data deallocated on  188 nodes for type:  1
       PAW data deallocated on   99 nodes for type:  2
       PAW data deallocated on   97 nodes for type:  3

     total cpu time spent up to now is       40.7 secs

     Self-consistent Calculation

     iteration #  1     ecut=    70.00 Ry     beta= 0.40
     Davidson diagonalization with overlap
     ethr =  1.00E-02,  avg # of iterations =  4.0

     total cpu time spent up to now is      259.4 secs

     total energy              =  -38856.26842402 Ry
     Harris-Foulkes estimate   =  -38997.94350393 Ry
     estimated scf accuracy    <     230.32514777 Ry

     iteration #  2     ecut=    70.00 Ry     beta= 0.40
     Davidson diagonalization with overlap
     ethr =  1.00E-02,  avg # of iterations =  3.0

     total cpu time spent up to now is      492.9 secs

     total energy              =  -38880.89090421 Ry
     Harris-Foulkes estimate   =  -39159.42144185 Ry
     estimated scf accuracy    <    1438.45705794 Ry

     iteration #  3     ecut=    70.00 Ry     beta= 0.40
     Davidson diagonalization with overlap
     ethr =  1.00E-02,  avg # of iterations =  3.0

     total cpu time spent up to now is      667.5 secs

     total energy              =  -38954.68173963 Ry
     Harris-Foulkes estimate   =  -39050.41056129 Ry
     estimated scf accuracy    <     660.10957371 Ry

     iteration #  4     ecut=    70.00 Ry     beta= 0.40
     Davidson diagonalization with overlap
     ethr =  1.00E-02,  avg # of iterations =  3.0

     total cpu time spent up to now is      806.3 secs

     total energy              =  -38983.84070794 Ry
     Harris-Foulkes estimate   =  -39009.70120985 Ry
     estimated scf accuracy    <     231.22594162 Ry

     iteration #  5     ecut=    70.00 Ry     beta= 0.40
     Davidson diagonalization with overlap
     ethr =  1.00E-02,  avg # of iterations =  1.8

     total cpu time spent up to now is      919.5 secs

     total energy              =  -38988.76916970 Ry
     Harris-Foulkes estimate   =  -38996.85603321 Ry
     estimated scf accuracy    <     101.02340256 Ry

     iteration #  6     ecut=    70.00 Ry     beta= 0.40
     Davidson diagonalization with overlap
     ethr =  6.62E-03,  avg # of iterations =  1.0

     total cpu time spent up to now is     1022.0 secs

     total energy              =  -38988.87654412 Ry
     Harris-Foulkes estimate   =  -38992.44915718 Ry
     estimated scf accuracy    <      42.74794579 Ry

     iteration #  7     ecut=    70.00 Ry     beta= 0.40
     Davidson diagonalization with overlap
     ethr =  2.80E-03,  avg # of iterations =  1.0

     total cpu time spent up to now is     1125.1 secs

     total energy              =  -38987.95268859 Ry
     Harris-Foulkes estimate   =  -38990.16850872 Ry
     estimated scf accuracy    <      36.56542537 Ry

     iteration #  8     ecut=    70.00 Ry     beta= 0.40
     Davidson diagonalization with overlap
     ethr =  2.40E-03,  avg # of iterations =  1.0

     total cpu time spent up to now is     1227.7 secs

     total energy              =  -38986.48580170 Ry
     Harris-Foulkes estimate   =  -38988.70099916 Ry
     estimated scf accuracy    <      21.17568839 Ry

     iteration #  9     ecut=    70.00 Ry     beta= 0.40
     Davidson diagonalization with overlap
     ethr =  1.39E-03,  avg # of iterations =  1.0

     total cpu time spent up to now is     1330.3 secs

     total energy              =  -38985.86911757 Ry
     Harris-Foulkes estimate   =  -38987.13978372 Ry
     estimated scf accuracy    <      11.52959495 Ry

     iteration # 10     ecut=    70.00 Ry     beta= 0.40
     Davidson diagonalization with overlap
     ethr =  7.56E-04,  avg # of iterations =  1.9

     total cpu time spent up to now is     1442.6 secs

     total energy              =  -38984.64944205 Ry
     Harris-Foulkes estimate   =  -38986.48188986 Ry
     estimated scf accuracy    <       7.78173219 Ry

     iteration # 11     ecut=    70.00 Ry     beta= 0.40
     Davidson diagonalization with overlap
     ethr =  5.10E-04,  avg # of iterations =  4.0

     total cpu time spent up to now is     1592.9 secs

     total energy              =  -38985.01386319 Ry
     Harris-Foulkes estimate   =  -38986.68190161 Ry
     estimated scf accuracy    <      13.24085013 Ry

     iteration # 12     ecut=    70.00 Ry     beta= 0.40
     Davidson diagonalization with overlap
     ethr =  5.10E-04,  avg # of iterations =  1.1

     total cpu time spent up to now is     1702.8 secs

     total energy              =  -38985.45846983 Ry
     Harris-Foulkes estimate   =  -38986.22965827 Ry
     estimated scf accuracy    <       9.21719711 Ry

     iteration # 13     ecut=    70.00 Ry     beta= 0.40
     Davidson diagonalization with overlap
     ethr =  5.10E-04,  avg # of iterations =  1.0

     total cpu time spent up to now is     1805.4 secs

     total energy              =  -38985.78970725 Ry
     Harris-Foulkes estimate   =  -38985.99535836 Ry
     estimated scf accuracy    <       2.28473483 Ry

     iteration # 14     ecut=    70.00 Ry     beta= 0.40
     Davidson diagonalization with overlap
     ethr =  1.50E-04,  avg # of iterations =  1.0

     total cpu time spent up to now is     1908.0 secs

     total energy              =  -38985.85480201 Ry
     Harris-Foulkes estimate   =  -38985.93304331 Ry
     estimated scf accuracy    <       0.90832463 Ry

     iteration # 15     ecut=    70.00 Ry     beta= 0.40
     Davidson diagonalization with overlap
     ethr =  5.96E-05,  avg # of iterations =  1.6

     total cpu time spent up to now is     2042.3 secs

     total energy              =  -38985.88515854 Ry
     Harris-Foulkes estimate   =  -38985.90591667 Ry
     estimated scf accuracy    <       0.15127267 Ry

     iteration # 16     ecut=    70.00 Ry     beta= 0.40
     Davidson diagonalization with overlap
     ethr =  9.92E-06,  avg # of iterations =  7.9

     total cpu time spent up to now is     2267.3 secs

     total energy              =  -38985.86141453 Ry
     Harris-Foulkes estimate   =  -38985.93162329 Ry
     estimated scf accuracy    <       1.07321290 Ry

     iteration # 17     ecut=    70.00 Ry     beta= 0.40
     Davidson diagonalization with overlap
     ethr =  9.92E-06,  avg # of iterations =  4.5

     total cpu time spent up to now is     2426.5 secs

     total energy              =  -38985.89262699 Ry
     Harris-Foulkes estimate   =  -38985.90165513 Ry
     estimated scf accuracy    <       0.07618161 Ry

     iteration # 18     ecut=    70.00 Ry     beta= 0.40
     Davidson diagonalization with overlap
     ethr =  5.00E-06,  avg # of iterations =  2.0

     total cpu time spent up to now is     2539.9 secs

     total energy              =  -38985.89358948 Ry
     Harris-Foulkes estimate   =  -38985.90085147 Ry
     estimated scf accuracy    <       0.06193859 Ry

     iteration # 19     ecut=    70.00 Ry     beta= 0.40
     Davidson diagonalization with overlap
     ethr =  4.06E-06,  avg # of iterations =  1.2

     total cpu time spent up to now is     2652.9 secs

     total energy              =  -38985.89455378 Ry
     Harris-Foulkes estimate   =  -38985.90006854 Ry
     estimated scf accuracy    <       0.06568562 Ry

     iteration # 20     ecut=    70.00 Ry     beta= 0.40
     Davidson diagonalization with overlap
     ethr =  4.06E-06,  avg # of iterations =  1.0

     total cpu time spent up to now is     2755.3 secs

     total energy              =  -38985.89640094 Ry
     Harris-Foulkes estimate   =  -38985.89905190 Ry
     estimated scf accuracy    <       0.02915075 Ry

     iteration # 21     ecut=    70.00 Ry     beta= 0.40
     Davidson diagonalization with overlap
     ethr =  1.91E-06,  avg # of iterations =  1.0

     total cpu time spent up to now is     2857.9 secs

     total energy              =  -38985.89583751 Ry
     Harris-Foulkes estimate   =  -38985.89956153 Ry
     estimated scf accuracy    <       0.04459283 Ry

     iteration # 22     ecut=    70.00 Ry     beta= 0.40
     Davidson diagonalization with overlap
     ethr =  1.91E-06,  avg # of iterations =  1.0

     total cpu time spent up to now is     2960.0 secs

     total energy              =  -38985.89689028 Ry
     Harris-Foulkes estimate   =  -38985.89861909 Ry
     estimated scf accuracy    <       0.01824108 Ry

     iteration # 23     ecut=    70.00 Ry     beta= 0.40
     Davidson diagonalization with overlap
     ethr =  1.20E-06,  avg # of iterations =  1.0

     total cpu time spent up to now is     3062.0 secs

     total energy              =  -38985.89654885 Ry
     Harris-Foulkes estimate   =  -38985.89902755 Ry
     estimated scf accuracy    <       0.03395356 Ry

     iteration # 24     ecut=    70.00 Ry     beta= 0.40
     Davidson diagonalization with overlap
     ethr =  1.20E-06,  avg # of iterations =  1.0

     total cpu time spent up to now is     3164.0 secs

     total energy              =  -38985.89665595 Ry
     Harris-Foulkes estimate   =  -38985.89899289 Ry
     estimated scf accuracy    <       0.03123323 Ry

     iteration # 25     ecut=    70.00 Ry     beta= 0.40
     Davidson diagonalization with overlap
     ethr =  1.20E-06,  avg # of iterations =  1.0

     total cpu time spent up to now is     3266.0 secs

     total energy              =  -38985.89754156 Ry
     Harris-Foulkes estimate   =  -38985.89832198 Ry
     estimated scf accuracy    <       0.00827088 Ry

     iteration # 26     ecut=    70.00 Ry     beta= 0.40
     Davidson diagonalization with overlap
     ethr =  5.42E-07,  avg # of iterations =  1.0

     total cpu time spent up to now is     3368.1 secs

     total energy              =  -38985.89747708 Ry
     Harris-Foulkes estimate   =  -38985.89835847 Ry
     estimated scf accuracy    <       0.01148197 Ry

     iteration # 27     ecut=    70.00 Ry     beta= 0.40
     Davidson diagonalization with overlap
     ethr =  5.42E-07,  avg # of iterations =  1.0

     total cpu time spent up to now is     3470.4 secs

     total energy              =  -38985.89773810 Ry
     Harris-Foulkes estimate   =  -38985.89816958 Ry
     estimated scf accuracy    <       0.00540430 Ry

     iteration # 28     ecut=    70.00 Ry     beta= 0.40
     Davidson diagonalization with overlap
     ethr =  3.54E-07,  avg # of iterations =  1.0

     total cpu time spent up to now is     3572.4 secs

     total energy              =  -38985.89787187 Ry
     Harris-Foulkes estimate   =  -38985.89806846 Ry
     estimated scf accuracy    <       0.00216507 Ry

     iteration # 29     ecut=    70.00 Ry     beta= 0.40
     Davidson diagonalization with overlap
     ethr =  1.42E-07,  avg # of iterations =  1.0

     total cpu time spent up to now is     3674.4 secs

     total energy              =  -38985.89790144 Ry
     Harris-Foulkes estimate   =  -38985.89804323 Ry
     estimated scf accuracy    <       0.00162896 Ry

     iteration # 30     ecut=    70.00 Ry     beta= 0.40
     Davidson diagonalization with overlap
     ethr =  1.07E-07,  avg # of iterations =  1.0

     total cpu time spent up to now is     3776.4 secs

     total energy              =  -38985.89795517 Ry
     Harris-Foulkes estimate   =  -38985.89801868 Ry
     estimated scf accuracy    <       0.00085014 Ry

     iteration # 31     ecut=    70.00 Ry     beta= 0.40
     Davidson diagonalization with overlap
     ethr =  5.57E-08,  avg # of iterations =  1.0

     total cpu time spent up to now is     3878.4 secs

     total energy              =  -38985.89795743 Ry
     Harris-Foulkes estimate   =  -38985.89801996 Ry
     estimated scf accuracy    <       0.00064984 Ry

     iteration # 32     ecut=    70.00 Ry     beta= 0.40
     Davidson diagonalization with overlap
     ethr =  4.26E-08,  avg # of iterations =  1.0

     total cpu time spent up to now is     3980.8 secs

     total energy              =  -38985.89797064 Ry
     Harris-Foulkes estimate   =  -38985.89801053 Ry
     estimated scf accuracy    <       0.00047303 Ry

     iteration # 33     ecut=    70.00 Ry     beta= 0.40
     Davidson diagonalization with overlap
     ethr =  3.10E-08,  avg # of iterations =  1.0

     total cpu time spent up to now is     4083.2 secs

     total energy              =  -38985.89797004 Ry
     Harris-Foulkes estimate   =  -38985.89801218 Ry
     estimated scf accuracy    <       0.00054140 Ry

     iteration # 34     ecut=    70.00 Ry     beta= 0.40
     Davidson diagonalization with overlap
     ethr =  3.10E-08,  avg # of iterations =  1.0

     total cpu time spent up to now is     4185.1 secs

     total energy              =  -38985.89796228 Ry
     Harris-Foulkes estimate   =  -38985.89802431 Ry
     estimated scf accuracy    <       0.00086527 Ry

     iteration # 35     ecut=    70.00 Ry     beta= 0.40
     Davidson diagonalization with overlap
     ethr =  3.10E-08,  avg # of iterations =  1.0

     total cpu time spent up to now is     4287.0 secs

     total energy              =  -38985.89797806 Ry
     Harris-Foulkes estimate   =  -38985.89801351 Ry
     estimated scf accuracy    <       0.00046154 Ry

     iteration # 36     ecut=    70.00 Ry     beta= 0.40
     Davidson diagonalization with overlap
     ethr =  3.03E-08,  avg # of iterations =  1.0

     total cpu time spent up to now is     4389.3 secs

     total energy              =  -38985.89798577 Ry
     Harris-Foulkes estimate   =  -38985.89800589 Ry
     estimated scf accuracy    <       0.00022849 Ry

     iteration # 37     ecut=    70.00 Ry     beta= 0.40
     Davidson diagonalization with overlap
     ethr =  1.50E-08,  avg # of iterations =  1.0

     total cpu time spent up to now is     4491.2 secs

     total energy              =  -38985.89798525 Ry
     Harris-Foulkes estimate   =  -38985.89800873 Ry
     estimated scf accuracy    <       0.00032473 Ry

     iteration # 38     ecut=    70.00 Ry     beta= 0.40
     Davidson diagonalization with overlap
     ethr =  1.50E-08,  avg # of iterations =  1.0

     total cpu time spent up to now is     4593.0 secs

     total energy              =  -38985.89799215 Ry
     Harris-Foulkes estimate   =  -38985.89800265 Ry
     estimated scf accuracy    <       0.00012546 Ry

     iteration # 39     ecut=    70.00 Ry     beta= 0.40
     Davidson diagonalization with overlap
     ethr =  8.23E-09,  avg # of iterations =  1.0

     total cpu time spent up to now is     4695.2 secs

     total energy              =  -38985.89799398 Ry
     Harris-Foulkes estimate   =  -38985.89800140 Ry
     estimated scf accuracy    <       0.00007924 Ry

     iteration # 40     ecut=    70.00 Ry     beta= 0.40
     Davidson diagonalization with overlap
     ethr =  5.20E-09,  avg # of iterations =  1.0

     total cpu time spent up to now is     4797.0 secs

     total energy              =  -38985.89799591 Ry
     Harris-Foulkes estimate   =  -38985.89800128 Ry
     estimated scf accuracy    <       0.00008011 Ry

     iteration # 41     ecut=    70.00 Ry     beta= 0.40
     Davidson diagonalization with overlap
     ethr =  5.20E-09,  avg # of iterations =  1.0

     total cpu time spent up to now is     4898.8 secs

     total energy              =  -38985.89799759 Ry
     Harris-Foulkes estimate   =  -38985.89799975 Ry
     estimated scf accuracy    <       0.00001815 Ry

     iteration # 42     ecut=    70.00 Ry     beta= 0.40
     Davidson diagonalization with overlap
     ethr =  1.19E-09,  avg # of iterations =  1.0

     total cpu time spent up to now is     5000.4 secs

     total energy              =  -38985.89799768 Ry
     Harris-Foulkes estimate   =  -38985.89800001 Ry
     estimated scf accuracy    <       0.00003046 Ry

     iteration # 43     ecut=    70.00 Ry     beta= 0.40
     Davidson diagonalization with overlap
     ethr =  1.19E-09,  avg # of iterations =  1.0

     total cpu time spent up to now is     5101.8 secs

     total energy              =  -38985.89799831 Ry
     Harris-Foulkes estimate   =  -38985.89799970 Ry
     estimated scf accuracy    <       0.00001797 Ry

     iteration # 44     ecut=    70.00 Ry     beta= 0.40
     Davidson diagonalization with overlap
     ethr =  1.18E-09,  avg # of iterations =  1.0

     total cpu time spent up to now is     5203.7 secs

     total energy              =  -38985.89799817 Ry
     Harris-Foulkes estimate   =  -38985.89800006 Ry
     estimated scf accuracy    <       0.00002641 Ry

     iteration # 45     ecut=    70.00 Ry     beta= 0.40
     Davidson diagonalization with overlap
     ethr =  1.18E-09,  avg # of iterations =  1.0

     total cpu time spent up to now is     5305.7 secs

     total energy              =  -38985.89799845 Ry
     Harris-Foulkes estimate   =  -38985.89799993 Ry
     estimated scf accuracy    <       0.00001910 Ry

     iteration # 46     ecut=    70.00 Ry     beta= 0.40
     Davidson diagonalization with overlap
     ethr =  1.18E-09,  avg # of iterations =  1.0

     total cpu time spent up to now is     5407.4 secs

     total energy              =  -38985.89799893 Ry
     Harris-Foulkes estimate   =  -38985.89799958 Ry
     estimated scf accuracy    <       0.00000771 Ry

     iteration # 47     ecut=    70.00 Ry     beta= 0.40
     Davidson diagonalization with overlap
     ethr =  5.06E-10,  avg # of iterations =  1.0

     total cpu time spent up to now is     5508.9 secs

     total energy              =  -38985.89799877 Ry
     Harris-Foulkes estimate   =  -38985.89799978 Ry
     estimated scf accuracy    <       0.00001396 Ry

     iteration # 48     ecut=    70.00 Ry     beta= 0.40
     Davidson diagonalization with overlap
     ethr =  5.06E-10,  avg # of iterations =  1.0

     total cpu time spent up to now is     5610.4 secs

     total energy              =  -38985.89799900 Ry
     Harris-Foulkes estimate   =  -38985.89799962 Ry
     estimated scf accuracy    <       0.00000832 Ry

     iteration # 49     ecut=    70.00 Ry     beta= 0.40
     Davidson diagonalization with overlap
     ethr =  5.06E-10,  avg # of iterations =  1.0

     total cpu time spent up to now is     5711.8 secs

     total energy              =  -38985.89799911 Ry
     Harris-Foulkes estimate   =  -38985.89799957 Ry
     estimated scf accuracy    <       0.00000500 Ry

     iteration # 50     ecut=    70.00 Ry     beta= 0.40
     Davidson diagonalization with overlap
     ethr =  3.28E-10,  avg # of iterations =  1.0

     total cpu time spent up to now is     5813.4 secs

     total energy              =  -38985.89799916 Ry
     Harris-Foulkes estimate   =  -38985.89799961 Ry
     estimated scf accuracy    <       0.00000680 Ry

     iteration # 51     ecut=    70.00 Ry     beta= 0.40
     Davidson diagonalization with overlap
     ethr =  3.28E-10,  avg # of iterations =  1.0

     total cpu time spent up to now is     5915.4 secs

     End of self-consistent calculation

          k = 0.2500 0.1250 0.2500 (116137 PWs)   bands (ev):

   -99.1700 -99.1401 -99.1214 -99.0736 -99.0579 -99.0516 -99.0342 -98.9510
   -98.9303 -98.8960 -98.8196 -98.7984 -98.7452 -98.7417 -98.7126 -98.6603
   -98.6562 -98.6324 -98.6243 -98.6186 -98.5920 -98.5723 -98.5501 -98.5282
   -98.5117 -98.5110 -98.4860 -98.4685 -98.4612 -98.4346 -98.4340 -98.4000
   -98.3945 -98.3656 -98.3572 -98.3570 -98.3529 -98.3491 -98.3301 -98.3288
   -98.3114 -98.3098 -98.3070 -98.2811 -98.2542 -98.2278 -98.1822 -98.1547
   -98.0533 -56.9647 -56.8260 -56.7828 -56.7760 -56.7207 -56.7183 -56.6641
   -56.6566 -56.4937 -56.4725 -56.4656 -56.3980 -56.3974 -56.3865 -56.3738
   -56.3592 -56.3331 -56.3309 -56.3083 -56.3081 -56.2918 -56.2879 -56.2877
   -56.2763 -56.2761 -56.2613 -56.2579 -56.2550 -56.2300 -56.2087 -56.2030
   -56.2024 -56.2020 -56.2019 -56.1825 -56.1638 -56.1563 -56.1443 -56.1288
   -56.1231 -56.1156 -56.1070 -56.0955 -56.0877 -56.0833 -56.0668 -56.0586
   -56.0388 -56.0249 -56.0178 -55.9703 -55.9692 -55.9686 -55.9635 -55.9633
   -55.9599 -55.9475 -55.9471 -55.9341 -55.9323 -55.9278 -55.9270 -55.9162
   -55.9140 -55.9106 -55.8856 -55.8800 -55.8750 -55.8717 -55.8717 -55.8708
   -55.8620 -55.8561 -55.8558 -55.8552 -55.8551 -55.8498 -55.8402 -55.8386
   -55.8263 -55.8236 -55.8152 -55.8139 -55.8047 -55.7941 -55.7924 -55.7875
   -55.7841 -55.7785 -55.7729 -55.7707 -55.7700 -55.7588 -55.7578 -55.7566
   -55.7561 -55.7350 -55.7348 -55.7261 -55.7213 -55.7116 -55.7080 -55.6982
   -55.6963 -55.6958 -55.6894 -55.6865 -55.6859 -55.6834 -55.6814 -55.6798
   -55.6699 -55.6614 -55.6575 -55.6546 -55.6544 -55.6434 -55.6363 -55.6296
   -55.6222 -55.6209 -55.6126 -55.6045 -55.6000 -55.5919 -55.5889 -55.5795
   -55.5765 -55.5719 -55.5648 -55.5642 -55.5640 -55.5632 -55.5608 -55.5600
   -55.5435 -55.5432 -55.5311 -55.5294 -55.5184 -55.5146 -55.4738 -55.4349
   -55.4307 -55.4272 -55.4007 -55.3543 -34.1937 -34.1896 -34.1457 -34.1194
   -34.1028 -34.1012 -34.0641 -34.0557 -34.0550 -34.0317 -34.0282 -34.0238
   -34.0174 -34.0111 -34.0070 -34.0020 -33.9864 -33.9798 -33.9733 -33.9624
   -33.9602 -33.9321 -33.9295 -33.9223 -33.9142 -33.8927 -33.8851 -33.8653
   -33.8533 -33.8516 -33.8497 -33.8397 -33.8271 -33.8173 -33.7905 -33.7835
   -33.7781 -33.7527 -33.7192 -33.7156 -33.7008 -33.6975 -33.6740 -33.6362
   -33.6338 -33.6142 -33.5758 -33.4755 -33.4476 -13.3193 -13.2438 -12.9735
   -12.7027 -12.6367 -12.6199 -12.6073 -12.5968 -12.5799 -12.5673 -12.5570
   -12.5288 -12.5213 -12.4955 -12.4778 -12.4716 -12.4472 -12.4368 -12.4232
   -12.4157 -12.4026 -12.3956 -12.3891 -12.3840 -12.3776 -12.3657 -12.3572
   -12.3503 -12.3340 -12.3276 -12.3222 -12.3169 -12.3114 -12.2907 -12.2860
   -12.2802 -12.2725 -12.2701 -12.2653 -12.2545 -12.2437 -12.2383 -12.2303
   -12.2238 -12.2176 -12.2139 -12.2095 -12.2034 -12.1921 -12.1829 -12.1812
   -12.1757 -12.1671 -12.1645 -12.1581 -12.1553 -12.1427 -12.1395 -12.1329
   -12.1272 -12.1228 -12.1109 -12.1048 -12.1013 -12.0967 -12.0910 -12.0837
   -12.0797 -12.0779 -12.0664 -12.0648 -12.0576 -12.0458 -12.0426 -12.0421
   -12.0305 -12.0230 -12.0178 -12.0129 -12.0016 -11.9946 -11.9853 -11.9759
   -11.9708 -11.9667 -11.9587 -11.9546 -11.9469 -11.9357 -11.9289 -11.9216
   -11.9164 -11.9023 -11.8944 -11.8874 -11.8832 -11.8643 -11.8620 -11.8510
   -11.8406 -11.8386 -11.8290 -11.8211 -11.8119 -11.8076 -11.8012 -11.7900
   -11.7763 -11.7697 -11.7576 -11.7494 -11.7411 -11.7313 -11.7223 -11.7155
   -11.7096 -11.7073 -11.6877 -11.6780 -11.6598 -11.6482 -11.6450 -11.6370
   -11.6065 -11.5819 -11.5745 -11.5631 -11.5538 -11.5409 -11.5335 -11.5255
   -11.5146 -11.4905 -11.4799 -11.4690 -11.4413 -11.4330 -11.3964 -11.3833
   -11.3646 -11.3134 -11.3009 -11.2023 -11.1892 -10.9940 -10.9254 -10.8126
     7.3286   7.7257   8.0021   8.1926   8.3512   8.5793   8.7117   8.8796
     8.9413   8.9699   9.0482   9.1695   9.2257   9.3059   9.3600   9.3963
     9.4409   9.5269   9.5433   9.5908   9.6334   9.6464   9.7012   9.7671
     9.8088   9.8240   9.8453   9.8760   9.9075   9.9220   9.9435   9.9627
     9.9738   9.9901   9.9959  10.0200  10.0339  10.0512  10.0625  10.0807
    10.0885  10.0996  10.1176  10.1296  10.1388  10.1468  10.1530  10.1723
    10.1806  10.1942  10.1990  10.2107  10.2265  10.2330  10.2536  10.2570
    10.2654  10.2737  10.2800  10.2880  10.3046  10.3145  10.3245  10.3403
    10.3482  10.3532  10.3703  10.3780  10.3863  10.3942  10.4078  10.4178
    10.4205  10.4332  10.4416  10.4556  10.4619  10.4638  10.4774  10.4890
    10.4967  10.5035  10.5129  10.5219  10.5345  10.5381  10.5603  10.5640
    10.5712  10.5798  10.5826  10.5920  10.5961  10.6034  10.6172  10.6251
    10.6340  10.6455  10.6488  10.6570  10.6751  10.6810  10.6855  10.6953
    10.7007  10.7075  10.7229  10.7257  10.7314  10.7345  10.7423  10.7512
    10.7611  10.7736  10.7815  10.7875  10.7972  10.8013  10.8122  10.8170
    10.8269  10.8326  10.8396  10.8468  10.8533  10.8680  10.8698  10.8773
    10.8805  10.8878  10.8949  10.9011  10.9146  10.9203  10.9276  10.9356
    10.9425  10.9565  10.9620  10.9690  10.9740  10.9798  10.9930  10.9982
    11.0037  11.0086  11.0154  11.0261  11.0311  11.0414  11.0511  11.0585
    11.0654  11.0703  11.0782  11.0903  11.0963  11.1055  11.1122  11.1170
    11.1253  11.1392  11.1498  11.1557  11.1640  11.1682  11.1742  11.1814
    11.1946  11.2000  11.2120  11.2255  11.2341  11.2405  11.2583  11.2621
    11.2693  11.2800  11.2870  11.2926  11.3007  11.3128  11.3145  11.3399
    11.3418  11.3473  11.3515  11.3625  11.3701  11.3750  11.3798  11.3906
    11.4018  11.4110  11.4176  11.4238  11.4345  11.4463  11.4511  11.4631
    11.4667  11.4785  11.4871  11.4969  11.5096  11.5146  11.5260  11.5354
    11.5433  11.5524  11.5611  11.5722  11.5821  11.5879  11.5906  11.5954
    11.6026  11.6107  11.6316  11.6362  11.6412  11.6546  11.6622  11.6686
    11.6740  11.6882  11.6960  11.7065  11.7204  11.7289  11.7472  11.7536
    11.7555  11.7684  11.7778  11.7896  11.7970  11.8086  11.8190  11.8312
    11.8415  11.8494  11.8615  11.8713  11.8865  11.8919  11.9049  11.9157
    11.9263  11.9336  11.9505  11.9657  11.9826  11.9955  12.0107  12.0187
    12.0426  12.0487  12.0567  12.0702  12.0809  12.0957  12.1089  12.1197
    12.1368  12.1538  12.1730  12.1960  12.2118  12.2161  12.2452  12.2704
    12.2753  12.2950  12.3114  12.3278  12.3346  12.3592  12.3906  12.4140
    12.4374  12.4592  12.4961  12.5517  12.5775  12.5973  12.6101  12.6503
    12.6812  12.7298  12.7666  12.7718  12.8035  12.8266  12.8589  12.8908
    12.9299  12.9787  12.9948  13.0172  13.0705  13.1221  13.1467  13.1707
    13.1959  13.2280  13.2551  13.2802  13.3006  13.3473  13.3620  13.3809
    13.3941  13.4448  13.4826  13.5148  13.5573  13.5780  13.5904  13.6028
    13.6275  13.6541  13.6707  13.6909  13.7400  13.7544  13.7834  13.8108
    13.8333  13.8494  13.8752  13.9144  13.9315  13.9546  13.9731  14.0017
    14.0095  14.0579  14.0751  14.0933  14.1165  14.1462  14.1653  14.2035
    14.2275  14.2433  14.2720  14.2912  14.2981  14.3375  14.3796  14.3867
    14.4115  14.4259  14.4434  14.4685  14.4794  14.5097  14.5189  14.5495
    14.5700  14.5890  14.6213  14.6386  14.6494  14.6908  14.7136  14.7359
    14.7545  14.7905  14.8107  14.8205  14.8470  14.8710  14.8789  14.9069
    14.9229  14.9492  14.9873  14.9967  15.0022  15.0369  15.0529  15.0812
    15.1009  15.1269  15.1441  15.1608  15.1806  15.2103  15.2359  15.2540
    15.2730  15.2915  15.3189  15.3404  15.3778  15.4055  15.4347  15.4686
    15.4934  15.5155  15.5529  15.5650  15.6032  15.6286  15.6501  15.6661
    15.6897  15.7321  15.7497  15.7828  15.8220  15.8539  15.8755  15.8934
    15.9239  15.9537  15.9836  16.0069  16.0342  16.0610  16.0898  16.1026
    16.1093  16.1541  16.1755  16.2008  16.2345  16.2486  16.2930  16.3190
    16.3454  16.3537  16.3704  16.4355  16.4475  16.4858  16.5225  16.5346
    16.5679  16.5995  16.6180  16.6300  16.6751  16.7074  16.7223  16.7441
    16.7753  16.7953  16.8137  16.8487  16.8770  16.8898  16.9122  16.9236
    16.9562  16.9784  17.0332  17.0492  17.0708  17.1041  17.1319  17.1707
    17.1816  17.2022  17.2413  17.2534  17.3021  17.3089  17.3406  17.3528
    17.3764  17.3960  17.4506  17.4759  17.4967  17.5413  17.5629  17.5776
    17.6218  17.6456  17.6669  17.6853  17.6934  17.7175  17.7374  17.7811
    17.7922  17.8123  17.8241  17.8602  17.8740  17.9114  17.9252  17.9615
    17.9861  18.0110  18.0289  18.0516  18.0828  18.1092  18.1273  18.1499
    18.1851  18.2051  18.2287  18.2574  18.2693  18.3027  18.3247  18.3366
    18.3708  18.3909  18.4183  18.4422  18.4548  18.5129  18.5309  18.5485
    18.5656  18.6137  18.6543  18.6796  18.7141  18.7289  18.7599  18.7839
    18.7904  18.8206  18.8386  18.8772  18.9302  18.9573  18.9785  19.0037
    19.0427  19.0671  19.1204  19.1305  19.2023  19.2261  19.2578  19.2845
    19.3238  19.3607  19.4253  19.4483  19.4899  19.5218  19.5813  19.6211
    19.6561  19.7230  19.7735  19.7927  19.8674  19.9158  19.9344  19.9793
    20.0086  20.0310  20.0931  20.1320  20.1764  20.2311  20.2518  20.2972
    20.3512  20.4245  20.4509  20.5010  20.5546  20.6074  20.6651  20.6970
    20.7183  20.7656  20.7923  20.8234  20.8900  20.9584  20.9917  21.0496
    21.0683  21.1379  21.1695  21.2210  21.2485  21.3159  21.3545  21.3738
    21.4502  21.4735  21.5133  21.6006  21.6580  21.7140  21.7465  21.8039
    21.8596  21.8926  21.9265  21.9481  22.0098  22.0498  22.0996  22.1423
    22.2033  22.2570  22.3080  22.3442  22.4106  22.4649  22.4967  22.5271
    22.5740  22.6427  22.6808  22.7058  22.7563  22.7787  22.8150  22.8977
    22.9148  22.9465  22.9910  23.0430  23.0903  23.1078  23.1421  23.1790
    23.2951  23.3345  23.3694  23.4054  23.4363  23.5135  23.5425  23.5759
    23.6170  23.6321  23.7147  23.7529  23.7769  23.8239  23.8442  23.8930
    23.9456  23.9898  24.0048  24.0462  24.0996  24.1305  24.1783  24.2446
    24.2746  24.3018  24.3398  24.3947  24.4102  24.4502  24.5380  24.5684
    24.6093  24.6376  24.6835  24.7498  24.7609  24.8044  24.8357  24.8705
    24.9134  24.9406  24.9901  25.0280  25.0687  25.1431  25.1816  25.1951
    25.2478  25.2855  25.3313  25.3457  25.3926  25.4483  25.4715  25.4923
    25.5683  25.5896  25.6157  25.6452  25.7004  25.7324

     occupation numbers 
     1.0000   1.0000   1.0000   1.0000   1.0000   1.0000   1.0000   1.0000
     1.0000   1.0000   1.0000   1.0000   1.0000   1.0000   1.0000   1.0000
     1.0000   1.0000   1.0000   1.0000   1.0000   1.0000   1.0000   1.0000
     1.0000   1.0000   1.0000   1.0000   1.0000   1.0000   1.0000   1.0000
     1.0000   1.0000   1.0000   1.0000   1.0000   1.0000   1.0000   1.0000
     1.0000   1.0000   1.0000   1.0000   1.0000   1.0000   1.0000   1.0000
     1.0000   1.0000   1.0000   1.0000   1.0000   1.0000   1.0000   1.0000
     1.0000   1.0000   1.0000   1.0000   1.0000   1.0000   1.0000   1.0000
     1.0000   1.0000   1.0000   1.0000   1.0000   1.0000   1.0000   1.0000
     1.0000   1.0000   1.0000   1.0000   1.0000   1.0000   1.0000   1.0000
     1.0000   1.0000   1.0000   1.0000   1.0000   1.0000   1.0000   1.0000
     1.0000   1.0000   1.0000   1.0000   1.0000   1.0000   1.0000   1.0000
     1.0000   1.0000   1.0000   1.0000   1.0000   1.0000   1.0000   1.0000
     1.0000   1.0000   1.0000   1.0000   1.0000   1.0000   1.0000   1.0000
     1.0000   1.0000   1.0000   1.0000   1.0000   1.0000   1.0000   1.0000
     1.0000   1.0000   1.0000   1.0000   1.0000   1.0000   1.0000   1.0000
     1.0000   1.0000   1.0000   1.0000   1.0000   1.0000   1.0000   1.0000
     1.0000   1.0000   1.0000   1.0000   1.0000   1.0000   1.0000   1.0000
     1.0000   1.0000   1.0000   1.0000   1.0000   1.0000   1.0000   1.0000
     1.0000   1.0000   1.0000   1.0000   1.0000   1.0000   1.0000   1.0000
     1.0000   1.0000   1.0000   1.0000   1.0000   1.0000   1.0000   1.0000
     1.0000   1.0000   1.0000   1.0000   1.0000   1.0000   1.0000   1.0000
     1.0000   1.0000   1.0000   1.0000   1.0000   1.0000   1.0000   1.0000
     1.0000   1.0000   1.0000   1.0000   1.0000   1.0000   1.0000   1.0000
     1.0000   1.0000   1.0000   1.0000   1.0000   1.0000   1.0000   1.0000
     1.0000   1.0000   1.0000   1.0000   1.0000   1.0000   1.0000   1.0000
     1.0000   1.0000   1.0000   1.0000   1.0000   1.0000   1.0000   1.0000
     1.0000   1.0000   1.0000   1.0000   1.0000   1.0000   1.0000   1.0000
     1.0000   1.0000   1.0000   1.0000   1.0000   1.0000   1.0000   1.0000
     1.0000   1.0000   1.0000   1.0000   1.0000   1.0000   1.0000   1.0000
     1.0000   1.0000   1.0000   1.0000   1.0000   1.0000   1.0000   1.0000
     1.0000   1.0000   1.0000   1.0000   1.0000   1.0000   1.0000   1.0000
     1.0000   1.0000   1.0000   1.0000   1.0000   1.0000   1.0000   1.0000
     1.0000   1.0000   1.0000   1.0000   1.0000   1.0000   1.0000   1.0000
     1.0000   1.0000   1.0000   1.0000   1.0000   1.0000   1.0000   1.0000
     1.0000   1.0000   1.0000   1.0000   1.0000   1.0000   1.0000   1.0000
     1.0000   1.0000   1.0000   1.0000   1.0000   1.0000   1.0000   1.0000
     1.0000   1.0000   1.0000   1.0000   1.0000   1.0000   1.0000   1.0000
     1.0000   1.0000   1.0000   1.0000   1.0000   1.0000   1.0000   1.0000
     1.0000   1.0000   1.0000   1.0000   1.0000   1.0000   1.0000   1.0000
     1.0000   1.0000   1.0000   1.0000   1.0000   1.0000   1.0000   1.0000
     1.0000   1.0000   1.0000   1.0000   1.0000   1.0000   1.0000   1.0000
     1.0000   1.0000   1.0000   1.0000   1.0000   1.0000   1.0000   1.0000
     1.0000   1.0000   1.0000   1.0000   1.0000   1.0000   1.0000   1.0000
     1.0000   1.0000   1.0000   1.0000   1.0000   1.0000   1.0000   1.0000
     1.0000   1.0000   1.0000   1.0000   1.0000   1.0000   1.0000   1.0000
     1.0000   1.0000   1.0000   1.0000   1.0000   1.0000   1.0000   1.0000
     1.0000   1.0000   1.0000   1.0000   1.0000   1.0000   1.0000   1.0000
     1.0000   1.0000   1.0000   1.0000   1.0000   1.0000   1.0000   1.0000
     1.0000   1.0000   1.0000   1.0000   1.0000   1.0000   1.0000   1.0000
     1.0000   1.0000   1.0000   1.0000   1.0000   1.0000   1.0000   1.0000
     1.0000   1.0000   1.0000   1.0000   1.0000   1.0000   1.0000   1.0000
     1.0000   1.0000   1.0000   1.0000   1.0000   1.0000   1.0000   1.0000
     1.0000   1.0000   1.0000   1.0000   1.0000   1.0000   1.0000   1.0000
     1.0000   1.0000   1.0000   1.0000   1.0000   1.0000   1.0000   1.0000
     1.0000   1.0000   1.0000   1.0000   1.0000   1.0000   1.0000   1.0000
     1.0000   1.0000   1.0000   1.0000   1.0000   1.0000   1.0000   1.0000
     1.0000   1.0000   1.0000   1.0000   1.0000   1.0000   1.0000   1.0000
     1.0000   1.0000   1.0000   1.0000   1.0000   1.0000   1.0000   1.0000
     1.0000   1.0000   1.0000   1.0000   1.0000   1.0000   1.0000   1.0000
     1.0000   1.0000   1.0000   1.0000   1.0000   1.0000   1.0000   1.0000
     1.0000   1.0000   1.0000   1.0000   1.0000   1.0000   1.0000   1.0000
     1.0000   1.0000   1.0000   1.0000   1.0000   1.0000   1.0000   1.0000
     1.0000   1.0000   1.0000   1.0000   1.0000   1.0000   1.0000   1.0000
     1.0000   1.0000   1.0000   1.0000   1.0000   1.0000   1.0000   1.0000
     1.0000   1.0000   1.0000   1.0000   1.0000   1.0000   1.0000   1.0000
     1.0000   1.0000   1.0000   1.0000   1.0000   1.0000   1.0000   1.0000
     1.0000   1.0000   1.0000   1.0000   1.0000   1.0000   1.0000   1.0000
     1.0000   1.0000   1.0000   1.0000   1.0000   1.0000   1.0000   1.0000
     1.0000   1.0000   1.0000   1.0000   1.0000   1.0000   1.0000   1.0000
     1.0000   1.0000   1.0000   1.0000   1.0000   1.0000   1.0000   1.0000
     1.0000   1.0000   1.0000   1.0000   1.0000   1.0000   1.0000   1.0000
     1.0000   1.0000   1.0000   1.0000   1.0000   1.0000   1.0000   1.0000
     1.0000   1.0000   1.0000   1.0000   1.0000   1.0000   1.0000   1.0000
     1.0000   1.0000   1.0000   1.0000   1.0000   1.0000   1.0000   1.0000
     1.0000   1.0000   1.0000   1.0000   1.0000   1.0000   1.0000   1.0000
     1.0000   1.0000   1.0000   1.0000   1.0000   1.0000   1.0000   1.0000
     1.0000   1.0000   1.0000   1.0000   1.0000   1.0000   1.0000   1.0000
     1.0000   1.0000   1.0000   1.0000   1.0000   1.0000   1.0000   1.0000
     1.0000   1.0000   1.0000   1.0000   1.0000   1.0000   1.0000   1.0000
     1.0000   1.0000   1.0000   1.0000   1.0000   1.0000   1.0000   1.0000
     1.0000   1.0000   1.0000   1.0000   1.0000   1.0000   1.0000   1.0000
     1.0000   1.0000   1.0000   1.0000   1.0000   1.0000   1.0000   1.0000
     1.0000   1.0000   1.0000   1.0000   1.0000   1.0000   1.0000   1.0000
     1.0000   1.0000   1.0000   1.0000   1.0000   1.0000   1.0000   1.0000
     1.0000   1.0000   1.0000   1.0000   1.0000   1.0000   1.0000   1.0000
     1.0000   1.0000   1.0000   1.0000   1.0000   1.0000   1.0000   1.0000
     1.0000   1.0000   1.0000   1.0000   1.0000   1.0000   1.0000   1.0000
     1.0000   1.0000   1.0000   1.0000   1.0000   1.0000   1.0000   1.0000
     1.0000   1.0000   1.0000   1.0000   0.9999   0.9999   0.9999   0.9999
     0.9999   0.9998   0.9998   0.9997   0.9996   0.9996   0.9995   0.9993
     0.9993   0.9989   0.9987   0.9985   0.9981   0.9975   0.9970   0.9957
     0.9947   0.9939   0.9920   0.9905   0.9899   0.9856   0.9789   0.9775
     0.9719   0.9681   0.9627   0.9535   0.9489   0.9336   0.9281   0.9070
     0.8898   0.8715   0.8344   0.8114   0.7957   0.7269   0.6834   0.6375
     0.5972   0.5158   0.4694   0.4470   0.3879   0.3371   0.3210   0.2677
     0.2398   0.1986   0.1487   0.1381   0.1322   0.0997   0.0872   0.0687
     0.0580   0.0462   0.0397   0.0343   0.0287   0.0220   0.0175   0.0148
     0.0125   0.0106   0.0082   0.0068   0.0048   0.0037   0.0029   0.0021
     0.0017   0.0014   0.0010   0.0009   0.0006   0.0005   0.0004   0.0003
     0.0003   0.0002   0.0002   0.0001   0.0001   0.0001   0.0000   0.0000
     0.0000   0.0000   0.0000   0.0000   0.0000   0.0000   0.0000   0.0000
     0.0000   0.0000   0.0000   0.0000   0.0000   0.0000   0.0000   0.0000
     0.0000   0.0000   0.0000   0.0000   0.0000   0.0000   0.0000   0.0000
     0.0000   0.0000   0.0000   0.0000   0.0000   0.0000   0.0000   0.0000
     0.0000   0.0000   0.0000   0.0000   0.0000   0.0000   0.0000   0.0000
     0.0000   0.0000   0.0000   0.0000   0.0000   0.0000   0.0000   0.0000
     0.0000   0.0000   0.0000   0.0000   0.0000   0.0000   0.0000   0.0000
     0.0000   0.0000   0.0000   0.0000   0.0000   0.0000   0.0000   0.0000
     0.0000   0.0000   0.0000   0.0000   0.0000   0.0000   0.0000   0.0000
     0.0000   0.0000   0.0000   0.0000   0.0000   0.0000   0.0000   0.0000
     0.0000   0.0000   0.0000   0.0000   0.0000   0.0000   0.0000   0.0000
     0.0000   0.0000   0.0000   0.0000   0.0000   0.0000   0.0000   0.0000
     0.0000   0.0000   0.0000   0.0000   0.0000   0.0000   0.0000   0.0000
     0.0000   0.0000   0.0000   0.0000   0.0000   0.0000   0.0000   0.0000
     0.0000   0.0000   0.0000   0.0000   0.0000   0.0000   0.0000   0.0000
     0.0000   0.0000   0.0000   0.0000   0.0000   0.0000   0.0000   0.0000
     0.0000   0.0000   0.0000   0.0000   0.0000   0.0000   0.0000   0.0000
     0.0000   0.0000   0.0000   0.0000   0.0000   0.0000   0.0000   0.0000
     0.0000   0.0000   0.0000   0.0000   0.0000   0.0000   0.0000   0.0000
     0.0000   0.0000   0.0000   0.0000   0.0000   0.0000   0.0000   0.0000
     0.0000   0.0000   0.0000   0.0000   0.0000   0.0000   0.0000   0.0000
     0.0000   0.0000   0.0000   0.0000   0.0000   0.0000   0.0000   0.0000
     0.0000   0.0000   0.0000   0.0000   0.0000   0.0000   0.0000   0.0000
     0.0000   0.0000   0.0000   0.0000   0.0000   0.0000   0.0000   0.0000
     0.0000   0.0000   0.0000   0.0000   0.0000   0.0000   0.0000   0.0000
     0.0000   0.0000   0.0000   0.0000   0.0000   0.0000   0.0000   0.0000
     0.0000   0.0000   0.0000   0.0000   0.0000   0.0000   0.0000   0.0000
     0.0000   0.0000   0.0000   0.0000   0.0000   0.0000   0.0000   0.0000
     0.0000   0.0000   0.0000   0.0000   0.0000   0.0000   0.0000   0.0000
     0.0000   0.0000   0.0000   0.0000   0.0000   0.0000   0.0000   0.0000
     0.0000   0.0000   0.0000   0.0000   0.0000   0.0000   0.0000   0.0000
     0.0000   0.0000   0.0000   0.0000   0.0000   0.0000   0.0000   0.0000
     0.0000   0.0000   0.0000   0.0000   0.0000   0.0000   0.0000   0.0000
     0.0000   0.0000   0.0000   0.0000   0.0000   0.0000   0.0000   0.0000
     0.0000   0.0000   0.0000   0.0000   0.0000   0.0000

          k = 0.2500 0.1250-0.2500 (116137 PWs)   bands (ev):

   -99.1700 -99.1401 -99.1214 -99.0736 -99.0579 -99.0516 -99.0342 -98.9510
   -98.9303 -98.8960 -98.8196 -98.7984 -98.7452 -98.7417 -98.7126 -98.6603
   -98.6562 -98.6324 -98.6243 -98.6186 -98.5920 -98.5723 -98.5501 -98.5282
   -98.5117 -98.5110 -98.4860 -98.4685 -98.4612 -98.4346 -98.4340 -98.4000
   -98.3945 -98.3656 -98.3572 -98.3570 -98.3529 -98.3491 -98.3301 -98.3288
   -98.3114 -98.3098 -98.3070 -98.2811 -98.2542 -98.2278 -98.1822 -98.1547
   -98.0533 -56.9646 -56.8260 -56.7828 -56.7760 -56.7207 -56.7183 -56.6641
   -56.6566 -56.4937 -56.4725 -56.4656 -56.3980 -56.3974 -56.3865 -56.3738
   -56.3592 -56.3331 -56.3309 -56.3083 -56.3081 -56.2918 -56.2879 -56.2877
   -56.2763 -56.2761 -56.2613 -56.2579 -56.2550 -56.2300 -56.2087 -56.2030
   -56.2024 -56.2020 -56.2019 -56.1825 -56.1639 -56.1563 -56.1443 -56.1288
   -56.1231 -56.1156 -56.1070 -56.0955 -56.0877 -56.0833 -56.0668 -56.0586
   -56.0388 -56.0249 -56.0178 -55.9703 -55.9692 -55.9686 -55.9635 -55.9633
   -55.9599 -55.9475 -55.9471 -55.9341 -55.9323 -55.9278 -55.9270 -55.9162
   -55.9140 -55.9106 -55.8856 -55.8800 -55.8750 -55.8717 -55.8717 -55.8708
   -55.8620 -55.8561 -55.8558 -55.8552 -55.8551 -55.8498 -55.8402 -55.8386
   -55.8263 -55.8236 -55.8152 -55.8139 -55.8047 -55.7941 -55.7924 -55.7875
   -55.7841 -55.7785 -55.7729 -55.7707 -55.7700 -55.7588 -55.7578 -55.7566
   -55.7561 -55.7350 -55.7348 -55.7261 -55.7213 -55.7116 -55.7080 -55.6982
   -55.6963 -55.6958 -55.6894 -55.6865 -55.6859 -55.6834 -55.6814 -55.6798
   -55.6699 -55.6614 -55.6575 -55.6546 -55.6544 -55.6434 -55.6363 -55.6296
   -55.6222 -55.6209 -55.6126 -55.6045 -55.6000 -55.5919 -55.5889 -55.5795
   -55.5765 -55.5719 -55.5648 -55.5642 -55.5640 -55.5632 -55.5608 -55.5600
   -55.5435 -55.5432 -55.5311 -55.5294 -55.5184 -55.5146 -55.4738 -55.4349
   -55.4307 -55.4272 -55.4007 -55.3543 -34.1937 -34.1896 -34.1457 -34.1194
   -34.1028 -34.1012 -34.0641 -34.0557 -34.0550 -34.0317 -34.0278 -34.0243
   -34.0174 -34.0110 -34.0069 -34.0020 -33.9864 -33.9798 -33.9733 -33.9624
   -33.9603 -33.9320 -33.9294 -33.9223 -33.9144 -33.8928 -33.8851 -33.8653
   -33.8533 -33.8514 -33.8500 -33.8397 -33.8270 -33.8174 -33.7905 -33.7835
   -33.7781 -33.7528 -33.7192 -33.7157 -33.7008 -33.6975 -33.6740 -33.6362
   -33.6339 -33.6142 -33.5758 -33.4755 -33.4476 -13.3193 -13.2438 -12.9735
   -12.7027 -12.6367 -12.6208 -12.6056 -12.5974 -12.5796 -12.5680 -12.5568
   -12.5279 -12.5219 -12.4961 -12.4776 -12.4722 -12.4477 -12.4361 -12.4219
   -12.4126 -12.4058 -12.3972 -12.3879 -12.3828 -12.3795 -12.3686 -12.3555
   -12.3500 -12.3329 -12.3283 -12.3207 -12.3182 -12.3098 -12.2900 -12.2862
   -12.2798 -12.2739 -12.2680 -12.2632 -12.2531 -12.2484 -12.2428 -12.2290
   -12.2216 -12.2182 -12.2123 -12.2045 -12.1998 -12.1967 -12.1857 -12.1803
   -12.1725 -12.1715 -12.1655 -12.1592 -12.1528 -12.1447 -12.1423 -12.1372
   -12.1278 -12.1204 -12.1113 -12.1063 -12.1006 -12.0950 -12.0903 -12.0859
   -12.0782 -12.0748 -12.0685 -12.0661 -12.0560 -12.0483 -12.0430 -12.0384
   -12.0320 -12.0264 -12.0149 -12.0071 -12.0026 -11.9944 -11.9815 -11.9757
   -11.9699 -11.9678 -11.9614 -11.9525 -11.9457 -11.9388 -11.9303 -11.9202
   -11.9171 -11.9007 -11.8971 -11.8888 -11.8837 -11.8655 -11.8610 -11.8519
   -11.8406 -11.8352 -11.8238 -11.8206 -11.8115 -11.8088 -11.8006 -11.7914
   -11.7837 -11.7707 -11.7546 -11.7501 -11.7370 -11.7337 -11.7235 -11.7162
   -11.7098 -11.7066 -11.6868 -11.6771 -11.6613 -11.6494 -11.6430 -11.6356
   -11.6093 -11.5813 -11.5743 -11.5621 -11.5534 -11.5418 -11.5335 -11.5248
   -11.5152 -11.4905 -11.4797 -11.4691 -11.4414 -11.4330 -11.3965 -11.3832
   -11.3647 -11.3132 -11.3010 -11.2023 -11.1892 -10.9940 -10.9254 -10.8126
     7.3271   7.7434   7.9555   8.2181   8.3789   8.5778   8.7401   8.8313
     8.8709   9.0145   9.1005   9.1187   9.1817   9.3332   9.3660   9.4344
     9.4586   9.5007   9.5474   9.5903   9.6399   9.6676   9.7189   9.7371
     9.7951   9.8214   9.8464   9.8767   9.8920   9.9233   9.9374   9.9682
     9.9787   9.9929  10.0089  10.0251  10.0299  10.0566  10.0710  10.0769
    10.0919  10.0958  10.1045  10.1185  10.1335  10.1467  10.1537  10.1681
    10.1786  10.1887  10.2024  10.2155  10.2229  10.2292  10.2487  10.2541
    10.2687  10.2753  10.2850  10.2908  10.3034  10.3196  10.3295  10.3403
    10.3482  10.3665  10.3738  10.3841  10.3914  10.3995  10.4061  10.4189
    10.4233  10.4351  10.4444  10.4519  10.4590  10.4697  10.4753  10.4874
    10.4995  10.5080  10.5119  10.5283  10.5407  10.5494  10.5532  10.5611
    10.5675  10.5760  10.5813  10.5904  10.6006  10.6064  10.6159  10.6207
    10.6376  10.6404  10.6508  10.6585  10.6666  10.6805  10.6812  10.6878
    10.6963  10.7037  10.7178  10.7257  10.7275  10.7416  10.7481  10.7541
    10.7649  10.7762  10.7833  10.7900  10.7957  10.8008  10.8134  10.8177
    10.8231  10.8288  10.8351  10.8473  10.8528  10.8595  10.8674  10.8792
    10.8839  10.8930  10.8939  10.9073  10.9117  10.9220  10.9297  10.9352
    10.9401  10.9483  10.9595  10.9660  10.9707  10.9826  10.9868  10.9921
    10.9952  11.0133  11.0225  11.0254  11.0344  11.0481  11.0512  11.0566
    11.0657  11.0726  11.0841  11.0888  11.0992  11.1077  11.1106  11.1171
    11.1276  11.1367  11.1416  11.1524  11.1549  11.1685  11.1717  11.1855
    11.1955  11.2055  11.2143  11.2205  11.2314  11.2472  11.2511  11.2620
    11.2665  11.2771  11.2811  11.2908  11.3049  11.3164  11.3204  11.3269
    11.3400  11.3440  11.3596  11.3652  11.3749  11.3822  11.3915  11.3955
    11.4035  11.4145  11.4201  11.4230  11.4319  11.4355  11.4480  11.4593
    11.4743  11.4803  11.4877  11.5000  11.5035  11.5140  11.5226  11.5373
    11.5391  11.5483  11.5537  11.5607  11.5720  11.5876  11.5953  11.6047
    11.6087  11.6174  11.6220  11.6300  11.6400  11.6460  11.6667  11.6748
    11.6852  11.6918  11.7009  11.7144  11.7191  11.7285  11.7381  11.7471
    11.7545  11.7644  11.7738  11.7869  11.7943  11.8065  11.8169  11.8232
    11.8324  11.8442  11.8564  11.8700  11.8847  11.8935  11.9042  11.9197
    11.9298  11.9323  11.9432  11.9568  11.9843  11.9983  12.0030  12.0182
    12.0243  12.0456  12.0544  12.0706  12.0750  12.0948  12.1142  12.1357
    12.1565  12.1680  12.1817  12.1883  12.1989  12.2275  12.2415  12.2623
    12.2749  12.2855  12.3130  12.3445  12.3626  12.3892  12.4093  12.4299
    12.4470  12.4710  12.4992  12.5205  12.5611  12.5782  12.5949  12.6713
    12.6787  12.7446  12.7539  12.7749  12.8153  12.8445  12.8634  12.8836
    12.9161  12.9801  12.9968  13.0412  13.0583  13.1231  13.1409  13.1617
    13.2026  13.2223  13.2470  13.2701  13.2793  13.3114  13.3453  13.3751
    13.4251  13.4465  13.4643  13.5021  13.5319  13.5456  13.5842  13.6018
    13.6252  13.6704  13.6925  13.7424  13.7671  13.7754  13.8119  13.8242
    13.8360  13.8671  13.8791  13.9029  13.9309  13.9540  13.9780  14.0217
    14.0260  14.0473  14.0633  14.0994  14.1337  14.1463  14.1781  14.2009
    14.2167  14.2476  14.2681  14.2783  14.2993  14.3262  14.3557  14.3878
    14.3959  14.4140  14.4346  14.4461  14.4627  14.4933  14.5008  14.5596
    14.5823  14.6046  14.6224  14.6435  14.6615  14.6854  14.7051  14.7353
    14.7627  14.7865  14.7977  14.8311  14.8541  14.8738  14.8862  14.9141
    14.9456  14.9523  14.9787  15.0096  15.0204  15.0331  15.0605  15.0780
    15.1044  15.1349  15.1525  15.1731  15.1856  15.2049  15.2149  15.2553
    15.2757  15.2926  15.3305  15.3449  15.3603  15.3828  15.4258  15.4337
    15.4782  15.5038  15.5406  15.5635  15.5814  15.5990  15.6338  15.6683
    15.6879  15.7111  15.7627  15.7691  15.8184  15.8382  15.8665  15.9010
    15.9196  15.9558  15.9826  16.0049  16.0164  16.0548  16.0855  16.1101
    16.1314  16.1544  16.1982  16.2118  16.2447  16.2697  16.2979  16.3393
    16.3723  16.3907  16.4085  16.4312  16.4428  16.4812  16.4945  16.5312
    16.5442  16.5790  16.6350  16.6501  16.6590  16.6847  16.7192  16.7396
    16.7738  16.8095  16.8198  16.8699  16.8870  16.9030  16.9276  16.9721
    16.9906  17.0091  17.0311  17.0429  17.0731  17.0934  17.1387  17.1531
    17.1821  17.2158  17.2452  17.2561  17.2769  17.3199  17.3439  17.3720
    17.3933  17.4064  17.4297  17.4671  17.4799  17.5329  17.5443  17.5749
    17.5836  17.6012  17.6361  17.6562  17.6818  17.7038  17.7357  17.7654
    17.7927  17.7979  17.8266  17.8501  17.8855  17.9004  17.9299  17.9814
    18.0132  18.0190  18.0447  18.0692  18.0817  18.0985  18.1179  18.1463
    18.1813  18.2176  18.2327  18.2604  18.2775  18.2871  18.3348  18.3457
    18.3730  18.3840  18.4303  18.4704  18.4937  18.5148  18.5419  18.5814
    18.5892  18.6124  18.6443  18.6700  18.7031  18.7146  18.7471  18.7583
    18.7935  18.8101  18.8417  18.8798  18.8994  18.9405  18.9779  19.0268
    19.0434  19.0648  19.0989  19.1604  19.1998  19.2258  19.2545  19.3019
    19.3488  19.3814  19.3994  19.4392  19.4563  19.5172  19.5933  19.6351
    19.6531  19.7053  19.7436  19.7830  19.8156  19.8644  19.9321  19.9554
    20.0165  20.0485  20.0783  20.1563  20.1742  20.2253  20.2662  20.3117
    20.3662  20.3903  20.4571  20.4876  20.5388  20.5705  20.6400  20.6911
    20.7444  20.7669  20.8482  20.8969  20.9623  20.9970  21.0459  21.0920
    21.1141  21.1397  21.1985  21.2370  21.2491  21.3187  21.3338  21.3763
    21.4470  21.5003  21.5409  21.5700  21.6616  21.7001  21.7441  21.7864
    21.8515  21.8935  21.9410  21.9640  21.9752  22.0476  22.0885  22.1271
    22.1913  22.2450  22.2901  22.3240  22.3586  22.3995  22.4465  22.5108
    22.5332  22.5898  22.6404  22.6756  22.6915  22.7590  22.8183  22.8433
    22.9256  22.9411  22.9970  23.0255  23.1022  23.1482  23.1561  23.2077
    23.2716  23.3320  23.3946  23.4205  23.4417  23.4902  23.5566  23.5784
    23.6061  23.6888  23.7214  23.7363  23.8026  23.8269  23.8665  23.9373
    23.9642  24.0016  24.0349  24.0830  24.1054  24.1685  24.1902  24.2690
    24.2896  24.3244  24.3677  24.4158  24.4609  24.4895  24.5235  24.5659
    24.6303  24.6631  24.6891  24.7210  24.7550  24.8143  24.8539  24.8712
    24.9056  24.9522  25.0199  25.0508  25.0617  25.1106  25.1544  25.1968
    25.2140  25.2857  25.3197  25.3410  25.3836  25.4101  25.4197  25.4932
    25.5281  25.5646  25.5916  25.6416  25.6730  25.7265

     occupation numbers 
     1.0000   1.0000   1.0000   1.0000   1.0000   1.0000   1.0000   1.0000
     1.0000   1.0000   1.0000   1.0000   1.0000   1.0000   1.0000   1.0000
     1.0000   1.0000   1.0000   1.0000   1.0000   1.0000   1.0000   1.0000
     1.0000   1.0000   1.0000   1.0000   1.0000   1.0000   1.0000   1.0000
     1.0000   1.0000   1.0000   1.0000   1.0000   1.0000   1.0000   1.0000
     1.0000   1.0000   1.0000   1.0000   1.0000   1.0000   1.0000   1.0000
     1.0000   1.0000   1.0000   1.0000   1.0000   1.0000   1.0000   1.0000
     1.0000   1.0000   1.0000   1.0000   1.0000   1.0000   1.0000   1.0000
     1.0000   1.0000   1.0000   1.0000   1.0000   1.0000   1.0000   1.0000
     1.0000   1.0000   1.0000   1.0000   1.0000   1.0000   1.0000   1.0000
     1.0000   1.0000   1.0000   1.0000   1.0000   1.0000   1.0000   1.0000
     1.0000   1.0000   1.0000   1.0000   1.0000   1.0000   1.0000   1.0000
     1.0000   1.0000   1.0000   1.0000   1.0000   1.0000   1.0000   1.0000
     1.0000   1.0000   1.0000   1.0000   1.0000   1.0000   1.0000   1.0000
     1.0000   1.0000   1.0000   1.0000   1.0000   1.0000   1.0000   1.0000
     1.0000   1.0000   1.0000   1.0000   1.0000   1.0000   1.0000   1.0000
     1.0000   1.0000   1.0000   1.0000   1.0000   1.0000   1.0000   1.0000
     1.0000   1.0000   1.0000   1.0000   1.0000   1.0000   1.0000   1.0000
     1.0000   1.0000   1.0000   1.0000   1.0000   1.0000   1.0000   1.0000
     1.0000   1.0000   1.0000   1.0000   1.0000   1.0000   1.0000   1.0000
     1.0000   1.0000   1.0000   1.0000   1.0000   1.0000   1.0000   1.0000
     1.0000   1.0000   1.0000   1.0000   1.0000   1.0000   1.0000   1.0000
     1.0000   1.0000   1.0000   1.0000   1.0000   1.0000   1.0000   1.0000
     1.0000   1.0000   1.0000   1.0000   1.0000   1.0000   1.0000   1.0000
     1.0000   1.0000   1.0000   1.0000   1.0000   1.0000   1.0000   1.0000
     1.0000   1.0000   1.0000   1.0000   1.0000   1.0000   1.0000   1.0000
     1.0000   1.0000   1.0000   1.0000   1.0000   1.0000   1.0000   1.0000
     1.0000   1.0000   1.0000   1.0000   1.0000   1.0000   1.0000   1.0000
     1.0000   1.0000   1.0000   1.0000   1.0000   1.0000   1.0000   1.0000
     1.0000   1.0000   1.0000   1.0000   1.0000   1.0000   1.0000   1.0000
     1.0000   1.0000   1.0000   1.0000   1.0000   1.0000   1.0000   1.0000
     1.0000   1.0000   1.0000   1.0000   1.0000   1.0000   1.0000   1.0000
     1.0000   1.0000   1.0000   1.0000   1.0000   1.0000   1.0000   1.0000
     1.0000   1.0000   1.0000   1.0000   1.0000   1.0000   1.0000   1.0000
     1.0000   1.0000   1.0000   1.0000   1.0000   1.0000   1.0000   1.0000
     1.0000   1.0000   1.0000   1.0000   1.0000   1.0000   1.0000   1.0000
     1.0000   1.0000   1.0000   1.0000   1.0000   1.0000   1.0000   1.0000
     1.0000   1.0000   1.0000   1.0000   1.0000   1.0000   1.0000   1.0000
     1.0000   1.0000   1.0000   1.0000   1.0000   1.0000   1.0000   1.0000
     1.0000   1.0000   1.0000   1.0000   1.0000   1.0000   1.0000   1.0000
     1.0000   1.0000   1.0000   1.0000   1.0000   1.0000   1.0000   1.0000
     1.0000   1.0000   1.0000   1.0000   1.0000   1.0000   1.0000   1.0000
     1.0000   1.0000   1.0000   1.0000   1.0000   1.0000   1.0000   1.0000
     1.0000   1.0000   1.0000   1.0000   1.0000   1.0000   1.0000   1.0000
     1.0000   1.0000   1.0000   1.0000   1.0000   1.0000   1.0000   1.0000
     1.0000   1.0000   1.0000   1.0000   1.0000   1.0000   1.0000   1.0000
     1.0000   1.0000   1.0000   1.0000   1.0000   1.0000   1.0000   1.0000
     1.0000   1.0000   1.0000   1.0000   1.0000   1.0000   1.0000   1.0000
     1.0000   1.0000   1.0000   1.0000   1.0000   1.0000   1.0000   1.0000
     1.0000   1.0000   1.0000   1.0000   1.0000   1.0000   1.0000   1.0000
     1.0000   1.0000   1.0000   1.0000   1.0000   1.0000   1.0000   1.0000
     1.0000   1.0000   1.0000   1.0000   1.0000   1.0000   1.0000   1.0000
     1.0000   1.0000   1.0000   1.0000   1.0000   1.0000   1.0000   1.0000
     1.0000   1.0000   1.0000   1.0000   1.0000   1.0000   1.0000   1.0000
     1.0000   1.0000   1.0000   1.0000   1.0000   1.0000   1.0000   1.0000
     1.0000   1.0000   1.0000   1.0000   1.0000   1.0000   1.0000   1.0000
     1.0000   1.0000   1.0000   1.0000   1.0000   1.0000   1.0000   1.0000
     1.0000   1.0000   1.0000   1.0000   1.0000   1.0000   1.0000   1.0000
     1.0000   1.0000   1.0000   1.0000   1.0000   1.0000   1.0000   1.0000
     1.0000   1.0000   1.0000   1.0000   1.0000   1.0000   1.0000   1.0000
     1.0000   1.0000   1.0000   1.0000   1.0000   1.0000   1.0000   1.0000
     1.0000   1.0000   1.0000   1.0000   1.0000   1.0000   1.0000   1.0000
     1.0000   1.0000   1.0000   1.0000   1.0000   1.0000   1.0000   1.0000
     1.0000   1.0000   1.0000   1.0000   1.0000   1.0000   1.0000   1.0000
     1.0000   1.0000   1.0000   1.0000   1.0000   1.0000   1.0000   1.0000
     1.0000   1.0000   1.0000   1.0000   1.0000   1.0000   1.0000   1.0000
     1.0000   1.0000   1.0000   1.0000   1.0000   1.0000   1.0000   1.0000
     1.0000   1.0000   1.0000   1.0000   1.0000   1.0000   1.0000   1.0000
     1.0000   1.0000   1.0000   1.0000   1.0000   1.0000   1.0000   1.0000
     1.0000   1.0000   1.0000   1.0000   1.0000   1.0000   1.0000   1.0000
     1.0000   1.0000   1.0000   1.0000   1.0000   1.0000   1.0000   1.0000
     1.0000   1.0000   1.0000   1.0000   1.0000   1.0000   1.0000   1.0000
     1.0000   1.0000   1.0000   1.0000   1.0000   1.0000   1.0000   1.0000
     1.0000   1.0000   1.0000   1.0000   1.0000   1.0000   1.0000   1.0000
     1.0000   1.0000   1.0000   1.0000   1.0000   1.0000   1.0000   1.0000
     1.0000   1.0000   1.0000   1.0000   1.0000   1.0000   1.0000   1.0000
     1.0000   1.0000   1.0000   1.0000   1.0000   1.0000   1.0000   1.0000
     1.0000   1.0000   1.0000   1.0000   1.0000   1.0000   1.0000   1.0000
     1.0000   1.0000   1.0000   1.0000   1.0000   1.0000   1.0000   1.0000
     1.0000   1.0000   1.0000   1.0000   1.0000   1.0000   1.0000   1.0000
     1.0000   1.0000   1.0000   1.0000   1.0000   1.0000   1.0000   1.0000
[...]
     atom   84 type  2   force =     0.00005844   -0.00034556   -0.00005556
     atom   85 type  3   force =    -0.00067025   -0.00014547    0.00081649
     atom   86 type  2   force =    -0.00085473    0.00171379   -0.00005627
     atom   87 type  3   force =    -0.00119397    0.00174856   -0.00257309
     atom   88 type  3   force =    -0.00337293   -0.00016793    0.00098982
     atom   89 type  1   force =    -0.00480494   -0.00402250   -0.00692538
     atom   90 type  3   force =    -0.00359739    0.00347752   -0.00020508
     atom   91 type  2   force =     0.00009622   -0.00003468    0.00012192
     atom   92 type  2   force =     0.00024273   -0.00016671   -0.00017258
     atom   93 type  2   force =    -0.00001232   -0.00009143    0.00004196
     atom   94 type  2   force =    -0.00036896    0.00085504    0.00052509
     atom   95 type  2   force =    -0.00026348    0.00001102    0.00010104
     atom   96 type  3   force =    -0.00013864   -0.00031584    0.00159002
     atom   97 type  3   force =     0.00143249   -0.00533668   -0.00156397
     atom   98 type  2   force =     0.00018932   -0.00016570    0.00043404
     atom   99 type  2   force =    -0.00031060    0.00016758   -0.00046969
     atom  100 type  3   force =     0.00051055   -0.00211042    0.00018794
     The Hubbard contrib.    to forces
     atom    1 type  2   force =     0.00000000    0.00000000    0.00000000
     atom    2 type  3   force =     0.00000000    0.00000000    0.00000000
     atom    3 type  2   force =     0.00000000    0.00000000    0.00000000
     atom    4 type  2   force =     0.00000000    0.00000000    0.00000000
     atom    5 type  3   force =     0.00000000    0.00000000    0.00000000
     atom    6 type  2   force =     0.00000000    0.00000000    0.00000000
     atom    7 type  2   force =     0.00000000    0.00000000    0.00000000
     atom    8 type  2   force =     0.00000000    0.00000000    0.00000000
     atom    9 type  3   force =     0.00000000    0.00000000    0.00000000
     atom   10 type  2   force =     0.00000000    0.00000000    0.00000000
     atom   11 type  3   force =     0.00000000    0.00000000    0.00000000
     atom   12 type  3   force =     0.00000000    0.00000000    0.00000000
     atom   13 type  3   force =     0.00000000    0.00000000    0.00000000
     atom   14 type  3   force =     0.00000000    0.00000000    0.00000000
     atom   15 type  2   force =     0.00000000    0.00000000    0.00000000
     atom   16 type  3   force =     0.00000000    0.00000000    0.00000000
     atom   17 type  2   force =     0.00000000    0.00000000    0.00000000
     atom   18 type  2   force =     0.00000000    0.00000000    0.00000000
     atom   19 type  3   force =     0.00000000    0.00000000    0.00000000
     atom   20 type  2   force =     0.00000000    0.00000000    0.00000000
     atom   21 type  2   force =     0.00000000    0.00000000    0.00000000
     atom   22 type  2   force =     0.00000000    0.00000000    0.00000000
     atom   23 type  3   force =     0.00000000    0.00000000    0.00000000
     atom   24 type  2   force =     0.00000000    0.00000000    0.00000000
     atom   25 type  2   force =     0.00000000    0.00000000    0.00000000
     atom   26 type  3   force =     0.00000000    0.00000000    0.00000000
     atom   27 type  2   force =     0.00000000    0.00000000    0.00000000
     atom   28 type  2   force =     0.00000000    0.00000000    0.00000000
     atom   29 type  3   force =     0.00000000    0.00000000    0.00000000
     atom   30 type  2   force =     0.00000000    0.00000000    0.00000000
     atom   31 type  3   force =     0.00000000    0.00000000    0.00000000
     atom   32 type  3   force =     0.00000000    0.00000000    0.00000000
     atom   33 type  3   force =     0.00000000    0.00000000    0.00000000
     atom   34 type  1   force =     0.00000000    0.00000000    0.00000000
     atom   35 type  2   force =     0.00000000    0.00000000    0.00000000
     atom   36 type  2   force =     0.00000000    0.00000000    0.00000000
     atom   37 type  3   force =     0.00000000    0.00000000    0.00000000
     atom   38 type  3   force =     0.00000000    0.00000000    0.00000000
     atom   39 type  2   force =     0.00000000    0.00000000    0.00000000
     atom   40 type  3   force =     0.00000000    0.00000000    0.00000000
     atom   41 type  3   force =     0.00000000    0.00000000    0.00000000
     atom   42 type  3   force =     0.00000000    0.00000000    0.00000000
     atom   43 type  2   force =     0.00000000    0.00000000    0.00000000
     atom   44 type  3   force =     0.00000000    0.00000000    0.00000000
     atom   45 type  2   force =     0.00000000    0.00000000    0.00000000
     atom   46 type  3   force =     0.00000000    0.00000000    0.00000000
     atom   47 type  3   force =     0.00000000    0.00000000    0.00000000
     atom   48 type  3   force =     0.00000000    0.00000000    0.00000000
     atom   49 type  2   force =     0.00000000    0.00000000    0.00000000
     atom   50 type  3   force =     0.00000000    0.00000000    0.00000000
     atom   51 type  3   force =     0.00000000    0.00000000    0.00000000
     atom   52 type  3   force =     0.00000000    0.00000000    0.00000000
     atom   53 type  2   force =     0.00000000    0.00000000    0.00000000
     atom   54 type  3   force =     0.00000000    0.00000000    0.00000000
     atom   55 type  3   force =     0.00000000    0.00000000    0.00000000
     atom   56 type  2   force =     0.00000000    0.00000000    0.00000000
     atom   57 type  3   force =     0.00000000    0.00000000    0.00000000
     atom   58 type  2   force =     0.00000000    0.00000000    0.00000000
     atom   59 type  3   force =     0.00000000    0.00000000    0.00000000
     atom   60 type  3   force =     0.00000000    0.00000000    0.00000000
     atom   61 type  2   force =     0.00000000    0.00000000    0.00000000
     atom   62 type  3   force =     0.00000000    0.00000000    0.00000000
     atom   63 type  2   force =     0.00000000    0.00000000    0.00000000
     atom   64 type  2   force =     0.00000000    0.00000000    0.00000000
     atom   65 type  3   force =     0.00000000    0.00000000    0.00000000
     atom   66 type  2   force =     0.00000000    0.00000000    0.00000000
     atom   67 type  2   force =     0.00000000    0.00000000    0.00000000
     atom   68 type  2   force =     0.00000000    0.00000000    0.00000000
     atom   69 type  2   force =     0.00000000    0.00000000    0.00000000
     atom   70 type  3   force =     0.00000000    0.00000000    0.00000000
     atom   71 type  2   force =     0.00000000    0.00000000    0.00000000
     atom   72 type  2   force =     0.00000000    0.00000000    0.00000000
     atom   73 type  3   force =     0.00000000    0.00000000    0.00000000
     atom   74 type  2   force =     0.00000000    0.00000000    0.00000000
     atom   75 type  2   force =     0.00000000    0.00000000    0.00000000
     atom   76 type  3   force =     0.00000000    0.00000000    0.00000000
     atom   77 type  3   force =     0.00000000    0.00000000    0.00000000
     atom   78 type  2   force =     0.00000000    0.00000000    0.00000000
     atom   79 type  3   force =     0.00000000    0.00000000    0.00000000
     atom   80 type  2   force =     0.00000000    0.00000000    0.00000000
     atom   81 type  3   force =     0.00000000    0.00000000    0.00000000
     atom   82 type  3   force =     0.00000000    0.00000000    0.00000000
     atom   83 type  3   force =     0.00000000    0.00000000    0.00000000
     atom   84 type  2   force =     0.00000000    0.00000000    0.00000000
     atom   85 type  3   force =     0.00000000    0.00000000    0.00000000
     atom   86 type  2   force =     0.00000000    0.00000000    0.00000000
     atom   87 type  3   force =     0.00000000    0.00000000    0.00000000
     atom   88 type  3   force =     0.00000000    0.00000000    0.00000000
     atom   89 type  1   force =     0.00000000    0.00000000    0.00000000
     atom   90 type  3   force =     0.00000000    0.00000000    0.00000000
     atom   91 type  2   force =     0.00000000    0.00000000    0.00000000
     atom   92 type  2   force =     0.00000000    0.00000000    0.00000000
     atom   93 type  2   force =     0.00000000    0.00000000    0.00000000
     atom   94 type  2   force =     0.00000000    0.00000000    0.00000000
     atom   95 type  2   force =     0.00000000    0.00000000    0.00000000
     atom   96 type  3   force =     0.00000000    0.00000000    0.00000000
     atom   97 type  3   force =     0.00000000    0.00000000    0.00000000
     atom   98 type  2   force =     0.00000000    0.00000000    0.00000000
     atom   99 type  2   force =     0.00000000    0.00000000    0.00000000
     atom  100 type  3   force =     0.00000000    0.00000000    0.00000000
     The SCF correction term to forces
     atom    1 type  2   force =     0.00034030   -0.00042421    0.00051448
     atom    2 type  3   force =    -0.00022840    0.00021449    0.00028520
     atom    3 type  2   force =     0.00010083   -0.00029772   -0.00000809
     atom    4 type  2   force =    -0.00040159   -0.00012697   -0.00009953
     atom    5 type  3   force =    -0.00048701    0.00000150   -0.00020417
     atom    6 type  2   force =     0.00061175   -0.00010969   -0.00049313
     atom    7 type  2   force =    -0.00043400   -0.00030721    0.00037200
     atom    8 type  2   force =     0.00070598   -0.00046566    0.00025177
     atom    9 type  3   force =    -0.00014181   -0.00021277    0.00002219
     atom   10 type  2   force =     0.00036738   -0.00042537    0.00000985
     atom   11 type  3   force =     0.00002279    0.00006678    0.00030070
     atom   12 type  3   force =    -0.00029775    0.00036850   -0.00014269
     atom   13 type  3   force =     0.00020064   -0.00026847   -0.00018666
     atom   14 type  3   force =     0.00008045   -0.00019686   -0.00013595
     atom   15 type  2   force =     0.00028182   -0.00008286    0.00009006
     atom   16 type  3   force =    -0.00031022    0.00030341    0.00034086
     atom   17 type  2   force =    -0.00170879    0.00137862   -0.00021655
     atom   18 type  2   force =    -0.00106575    0.00115285   -0.00060516
     atom   19 type  3   force =    -0.00029782    0.00003711   -0.00003740
     atom   20 type  2   force =    -0.00046803    0.00065755   -0.00044756
     atom   21 type  2   force =    -0.00085913    0.00077645    0.00064040
     atom   22 type  2   force =    -0.00115752    0.00129577    0.00023508
     atom   23 type  3   force =    -0.00039693    0.00038149   -0.00019191
     atom   24 type  2   force =    -0.00093686    0.00107383   -0.00054764
     atom   25 type  2   force =    -0.00055037    0.00092220   -0.00024129
     atom   26 type  3   force =     0.00039703   -0.00025668    0.00015009
     atom   27 type  2   force =     0.00092612    0.00003172    0.00055839
     atom   28 type  2   force =     0.00077578   -0.00009537    0.00024311
     atom   29 type  3   force =     0.00046544   -0.00036851   -0.00007573
     atom   30 type  2   force =     0.00093741   -0.00069557   -0.00043631
     atom   31 type  3   force =     0.00045152    0.00005779   -0.00040027
     atom   32 type  3   force =     0.00046803   -0.00007468   -0.00000164
     atom   33 type  3   force =    -0.00014408   -0.00050734    0.00010825
     atom   34 type  1   force =     0.00000709   -0.00012846   -0.00003019
     atom   35 type  2   force =     0.00021578   -0.00111879    0.00015238
     atom   36 type  2   force =    -0.00016515   -0.00079158   -0.00009968
     atom   37 type  3   force =     0.00004344   -0.00080750    0.00006812
     atom   38 type  3   force =     0.00024865   -0.00057541    0.00002329
     atom   39 type  2   force =     0.00008634   -0.00074607    0.00013666
     atom   40 type  3   force =    -0.00040543    0.00017255   -0.00021012
     atom   41 type  3   force =     0.00046010   -0.00027912   -0.00011436
     atom   42 type  3   force =    -0.00027467    0.00029742   -0.00003591
     atom   43 type  2   force =     0.00080159   -0.00030503   -0.00009434
     atom   44 type  3   force =     0.00022652   -0.00013472    0.00007351
     atom   45 type  2   force =    -0.00027122    0.00046085    0.00071154
     atom   46 type  3   force =     0.00050250    0.00017678    0.00018018
     atom   47 type  3   force =     0.00049864    0.00029444    0.00006003
     atom   48 type  3   force =     0.00059515    0.00014711   -0.00008057
     atom   49 type  2   force =     0.00097647    0.00058165   -0.00064519
     atom   50 type  3   force =    -0.00013819    0.00044396   -0.00001590
     atom   51 type  3   force =     0.00016353   -0.00020981    0.00024506
     atom   52 type  3   force =     0.00002110   -0.00046561    0.00018279
     atom   53 type  2   force =     0.00038375   -0.00080476    0.00020948
     atom   54 type  3   force =     0.00016213   -0.00042238   -0.00008217
     atom   55 type  3   force =    -0.00025125   -0.00025258   -0.00031688
     atom   56 type  2   force =     0.00003879    0.00002034    0.00051150
     atom   57 type  3   force =    -0.00013902   -0.00053161   -0.00008319
     atom   58 type  2   force =    -0.00025876   -0.00087809    0.00017356
     atom   59 type  3   force =    -0.00028970   -0.00026937   -0.00017222
     atom   60 type  3   force =    -0.00035695   -0.00026218    0.00006262
     atom   61 type  2   force =    -0.00024434   -0.00053449   -0.00022014
     atom   62 type  3   force =     0.00042295   -0.00001162    0.00025502
     atom   63 type  2   force =     0.00077380    0.00024803   -0.00004410
     atom   64 type  2   force =     0.00113128    0.00039402    0.00011023
     atom   65 type  3   force =     0.00042685    0.00023800   -0.00013606
     atom   66 type  2   force =     0.00002168   -0.00058667   -0.00028795
     atom   67 type  2   force =     0.00054226    0.00015170    0.00011554
     atom   68 type  2   force =     0.00077878    0.00021004    0.00040157
     atom   69 type  2   force =     0.00101540    0.00007004    0.00071870
     atom   70 type  3   force =     0.00049335   -0.00005696    0.00005442
     atom   71 type  2   force =     0.00121264    0.00049830   -0.00013296
     atom   72 type  2   force =     0.00043795    0.00024861   -0.00054325
     atom   73 type  3   force =     0.00044126    0.00030856   -0.00041248
     atom   74 type  2   force =     0.00021044    0.00038799   -0.00005917
     atom   75 type  2   force =    -0.00069207   -0.00090815    0.00051764
     atom   76 type  3   force =    -0.00064288   -0.00010003    0.00020955
     atom   77 type  3   force =    -0.00039327   -0.00060316   -0.00006999
     atom   78 type  2   force =    -0.00093314   -0.00063921   -0.00030713
     atom   79 type  3   force =    -0.00046840   -0.00046176   -0.00021907
     atom   80 type  2   force =    -0.00057354   -0.00069017   -0.00032721
     atom   81 type  3   force =    -0.00032609   -0.00023876    0.00037158
     atom   82 type  3   force =    -0.00011180   -0.00023157    0.00024281
     atom   83 type  3   force =    -0.00000694    0.00035361    0.00021073
     atom   84 type  2   force =     0.00004045    0.00042676   -0.00010320
     atom   85 type  3   force =    -0.00010775   -0.00013456   -0.00013251
     atom   86 type  2   force =    -0.00022175    0.00021584   -0.00036134
     atom   87 type  3   force =    -0.00012778    0.00039878    0.00031551
     atom   88 type  3   force =     0.00022696    0.00038266    0.00048926
     atom   89 type  1   force =    -0.00010666    0.00014910    0.00007436
     atom   90 type  3   force =    -0.00006889    0.00062391   -0.00015960
     atom   91 type  2   force =    -0.00036931    0.00072261   -0.00052624
     atom   92 type  2   force =    -0.00038803    0.00092484   -0.00083996
     atom   93 type  2   force =    -0.00000461    0.00055223   -0.00054031
     atom   94 type  2   force =    -0.00056831    0.00103401    0.00102029
     atom   95 type  2   force =     0.00023124    0.00051822    0.00099691
     atom   96 type  3   force =    -0.00030947    0.00040622    0.00011144
     atom   97 type  3   force =    -0.00074069    0.00050598   -0.00035871
     atom   98 type  2   force =     0.00031973    0.00054636   -0.00053574
     atom   99 type  2   force =    -0.00024324    0.00044960   -0.00090403
     atom  100 type  3   force =    -0.00017403    0.00047428   -0.00002785

     Total force =     1.061864     Total SCF correction =     0.008137

     Writing output data file Zr49Cu49Al2.save
 
     init_run     :     38.38s CPU     39.39s WALL (       1 calls)
     electrons    :   5772.32s CPU   5875.09s WALL (       1 calls)
     forces       :     24.09s CPU     24.82s WALL (       1 calls)

     Called by init_run:
     wfcinit      :     31.56s CPU     31.91s WALL (       1 calls)
     wfcinit:atom :      0.07s CPU      0.10s WALL (       1 calls)
     wfcinit:wfcr :     31.20s CPU     31.47s WALL (       1 calls)
     potinit      :      1.11s CPU      1.18s WALL (       1 calls)

     Called by electrons:
     c_bands      :   4915.53s CPU   4978.00s WALL (      51 calls)
     sum_band     :    727.54s CPU    748.17s WALL (      51 calls)
     v_of_rho     :     21.60s CPU     22.26s WALL (      52 calls)
     v_h          :      2.06s CPU      2.13s WALL (      52 calls)
     v_xc         :     19.91s CPU     20.51s WALL (      53 calls)
     newd         :     91.01s CPU    108.94s WALL (      52 calls)
     PAW_pot      :      8.92s CPU      9.29s WALL (      52 calls)
     mix_rho      :      5.47s CPU      5.77s WALL (      51 calls)

     Called by c_bands:
     init_us_2    :      9.05s CPU      9.14s WALL (     103 calls)
     cegterg      :   4503.97s CPU   4555.43s WALL (      51 calls)

     Called by sum_band:
     sum_band:bec :      1.39s CPU      1.41s WALL (      51 calls)
     addusdens    :    119.15s CPU    136.13s WALL (      51 calls)

     Called by *egterg:
     h_psi        :   2013.51s CPU   2025.60s WALL (     130 calls)
     s_psi        :    395.16s CPU    396.64s WALL (     130 calls)
     g_psi        :      2.62s CPU      2.62s WALL (      78 calls)
     cdiaghg      :    941.28s CPU    954.96s WALL (     129 calls)
     cegterg:over :    471.21s CPU    474.67s WALL (      78 calls)
     cegterg:upda :    272.58s CPU    273.78s WALL (      78 calls)
     cegterg:last :    251.08s CPU    251.20s WALL (      51 calls)
     cdiaghg:chol :     47.80s CPU     48.29s WALL (     129 calls)
     cdiaghg:inve :     55.59s CPU     55.95s WALL (     129 calls)
     cdiaghg:para :    138.66s CPU    144.21s WALL (     258 calls)

     Called by h_psi:
     h_psi:pot    :   2005.17s CPU   2017.24s WALL (     130 calls)
     h_psi:calbec :    396.96s CPU    397.67s WALL (     130 calls)
     vloc_psi     :   1211.53s CPU   1221.10s WALL (     130 calls)
     add_vuspsi   :    396.68s CPU    398.47s WALL (     130 calls)

     General routines
     calbec       :    602.23s CPU    603.29s WALL (     185 calls)
     fft          :     30.87s CPU     32.13s WALL (     839 calls)
     ffts         :      0.71s CPU      0.72s WALL (     103 calls)
     fftw         :   1091.55s CPU   1100.39s WALL (  285342 calls)
     interpolate  :      4.52s CPU      4.70s WALL (     103 calls)
 
     Parallel routines
     fft_scatt_xy :     92.31s CPU     92.89s WALL (  286284 calls)
     fft_scatt_yz :    195.43s CPU    197.99s WALL (  286284 calls)

     PAW routines
     PAW_pot      :      8.92s CPU      9.29s WALL (      52 calls)
 
     PWSCF        :     1h37m CPU        1h46m WALL

 
   This run was terminated on:  18:44: 4  19Apr2019            

=------------------------------------------------------------------------------=
   JOB DONE.
=------------------------------------------------------------------------------=
