  COHP#  atomMU  atomNU     distance     translation      ICOHP (at) eF   for spin  1
      1     Cu1     Zr2      3.37916       0   0   0           -0.34559 
      2     Cu1     Cu3      2.60421       0   0   0           -0.40635 
      3     Cu1     Cu7      2.75431       0   0   1           -0.26846 
      4     Cu1     Cu8      2.11794       0   0   0           -1.11218 
      5     Cu1     Zr9      2.22056       0   0   0           -3.41694 
      6     Cu1    Cu10      2.93826       0   0   0           -0.17280 
      7     Cu1    Zr11      2.95178       0   0   0           -0.73254 
      8     Cu1    Zr26      3.35070       0   0   0           -0.31386 
      9     Cu1    Zr32      2.59390       0   0   1           -1.56757 
     10     Cu1    Zr76      2.97097       1   0   0           -0.68036 
     11     Cu1    Cu78      3.57007       1   0   0           -0.03177 
     12     Cu1    Zr82      3.13951       1   0   0           -0.41291 
     13     Zr2     Cu3      2.50683       0   0   0           -1.87206 
     14     Zr2     Cu7      3.92133       0   0   1           -0.08982 
     15     Zr2    Cu17      4.13248       0   1   0           -0.08595 
     16     Zr2    Cu22      2.60100       0   1   0           -1.82298 
     17     Zr2    Zr23      2.80008       0   1   0           -3.19938 
     18     Zr2    Zr26      3.39564       0   0   0           -1.02756 
     19     Zr2    Cu27      3.66426       0   0   0           -0.13245 
     20     Zr2    Cu28      3.49485       0   0   0           -0.18893 
     21     Zr2    Zr31      4.04684       0   0   1           -0.28001 
     22     Zr2    Zr32      3.02049       0   0   1           -2.08372 
     23     Zr2    Cu45      2.73116       0   1   0           -1.05806 
     24     Zr2    Zr46      2.64296       0   1   0           -4.50870 
     25     Zr2    Zr47      3.85270       0   1   0           -0.42512 
     26     Zr2    Zr50      3.42268       0   1   1           -0.89436 
     27     Zr2    Zr76      3.38678       1   0   0           -1.10633 
     28     Zr2    Cu78      3.97827       1   0   0           -0.11345 
     29     Cu3     Cu4      2.88698       0   0   0           -0.28743 
     30     Cu3     Cu8      4.15316       0   0   0           -0.00418 
     31     Cu3     Zr9      3.22213       0   0   0           -0.44952 
     32     Cu3    Cu10      2.43378       0   0   0           -0.79388 
     33     Cu3    Cu22      4.15144       0   1   0           -0.01219 
     34     Cu3    Zr23      2.72501       0   1   0           -1.17165 
     35     Cu3    Zr26      2.66876       0   0   0           -1.34470 
     36     Cu3    Cu27      4.15404       0   0   0           -0.00304 
     37     Cu3    Cu28      2.95150       0   0   0           -0.16790 
     38     Cu3    Zr29      3.38831       0   0   0           -0.29966 
     39     Cu3    Zr32      3.90558       0   0   1           -0.09306 
     40     Cu3    Zr76      3.63645       1   0   0           -0.17923 
     41     Cu3    Cu78      2.54061       1   0   0           -0.61322 
     42     Cu3    Zr85      3.32270       1   0   0           -0.34260 
     43     Cu4     Zr5      2.22530       0   0   0           -3.38336 
     44     Cu4     Cu6      3.34035       0   0   0           -0.04409 
     45     Cu4    Zr13      3.64307       0   0   0           -0.18612 
     46     Cu4    Zr23      2.38219       0   1   0           -2.46207 
     47     Cu4    Cu24      3.80701       0   1   0            0.00280 
     48     Cu4    Cu25      2.88208       0   1   0           -0.18425 
     49     Cu4    Cu28      3.28875       0   0   0           -0.08560 
     50     Cu4    Zr29      2.75069       0   0   0           -1.17813 
     51     Cu4    Zr48      4.00312       0   1   0           -0.06630 
     52     Cu4    Cu78      3.13942       1   0   0           -0.08291 
     53     Cu4    Zr79      3.72344       1   0   0           -0.14137 
     54     Cu4    Cu80      3.40712       1   0   0           -0.08536 
     55     Cu4    Zr85      2.97456       1   0   0           -0.70667 
     56     Cu4    Zr97      2.86160       1   1   0           -0.76229 
     57     Cu4    Cu99      4.01626       1   1   0           -0.02585 
     58     Zr5     Cu6      3.05535       0   0   0           -0.62763 
     59     Zr5     Cu7      3.24214       0   0   0           -0.35456 
     60     Zr5    Zr13      3.13287       0   0   0           -1.54161 
     61     Zr5    Cu21      2.72403       0   1  -1           -1.20146 
     62     Zr5    Zr23      4.13700       0   1   0           -0.43864 
     63     Zr5    Cu24      2.77736       0   1   0           -1.02384 
     64     Zr5    Cu25      2.86234       0   1   0           -0.80042 
     65     Zr5    Zr29      4.02622       0   0   0           -0.42140 
     66     Zr5    Cu74      4.11001       1   1   0           -0.06265 
     67     Zr5    Cu80      2.79008       1   0   0           -0.80899 
     68     Zr5    Zr81      2.29744       1   0   0           -9.88177 
     69     Zr5    Zr82      4.19057       1   0  -1           -0.20030 
     70     Zr5    Zr85      3.98641       1   0   0           -0.48302 
     71     Zr5    Cu95      3.83564       1   1  -1           -0.19527 
     72     Zr5    Zr97      3.41581       1   1   0           -0.96815 
     73     Zr5    Cu99      3.38816       1   1   0           -0.27113 
     74     Zr5   Zr100      3.65566       1   1   0           -0.67141 
     75     Cu6     Cu7      2.72445       0   0   0           -0.37137 
     76     Cu6    Zr13      2.68135       0   0   0           -1.19017 
     77     Cu6    Cu21      3.50928       0   1  -1           -0.02176 
     78     Cu6    Cu24      4.11007       0   1   0           -0.00393 
     79     Cu6    Cu25      2.73558       0   1   0           -0.27869 
     80     Cu6    Cu28      3.88824       0   0   0           -0.01743 
     81     Cu6    Zr29      2.97856       0   0   0           -0.66353 
     82     Cu6    Cu30      2.50083       0   0   0           -0.51192 
     83     Cu6    Zr31      3.65447       0   0   0           -0.13633 
     84     Cu6    Zr32      3.52871       0   0   0           -0.21188 
     85     Cu6    Zr48      2.26058       0   1   0           -3.35911 
     86     Cu6    Cu49      3.54606       0   1   0           -0.05455 
     87     Cu6    Zr50      2.73121       0   1   0           -1.08280 
     88     Cu6    Zr54      3.59652       0   0   0           -0.23133 
     89     Cu7     Cu8      3.83155       0   0  -1            0.00502 
     90     Cu7     Zr9      4.00332       0   0  -1           -0.10376 
     91     Cu7    Zr13      2.73212       0   0   0           -1.10175 
     92     Cu7    Cu21      2.42654       0   1  -1           -0.53537 
     93     Cu7    Cu30      3.63807       0   0   0           -0.02265 
     94     Cu7    Zr32      2.92490       0   0   0           -0.82700 
     95     Cu7    Zr50      2.82724       0   1   0           -0.93815 
     96     Cu7    Zr76      2.37698       1   0  -1           -2.47298 
     97     Cu7    Zr81      3.40431       1   0   0           -0.25499 
     98     Cu7    Zr82      2.72068       1   0  -1           -1.13223 
     99     Cu8     Zr9      3.75158       0   0   0           -0.18596 
    100     Cu8    Cu10      3.30008       0   0   0           -0.02440 
    101     Cu8    Zr11      2.29724       0   0   0           -3.06198 
    102     Cu8    Zr13      4.09314       0   0   1           -0.04503 
    103     Cu8    Cu15      3.24127       0   0   1           -0.05372 
    104     Cu8    Zr26      3.41149       0   0   0           -0.26432 
    105     Cu8    Cu30      3.49721       0   0   1           -0.06335 
    106     Cu8    Zr32      2.60782       0   0   1           -1.55675 
    107     Cu8    Zr33      3.26589       0   0   0           -0.37517 
    108     Cu8    Al34      3.77767       0   0   0           -0.10618 
    109     Cu8    Zr38      2.43802       0   0   1           -2.17457 
    110     Cu8    Cu39      2.48169       0   0   0           -0.43526 
    111     Cu8    Cu61      3.50371       0   0   1           -0.09253 
    112     Cu8    Zr82      3.66446       1   0   0           -0.11554 
    113     Zr9    Cu10      3.36686       0   0   0           -0.34058 
    114     Zr9    Zr11      2.99127       0   0   0           -2.14861 
    115     Zr9    Zr12      3.46177       0   0   0           -0.90022 
    116     Zr9    Cu75      3.97214       1   0   0           -0.07417 
    117     Zr9    Zr76      3.19102       1   0   0           -1.40755 
    118     Zr9    Zr77      2.70235       1   0   0           -3.96700 
    119     Zr9    Cu78      2.65363       1   0   0           -1.31760 
    120     Zr9    Zr79      4.02601       1   0   0           -0.43776 
    121     Zr9    Zr82      3.21075       1   0   0           -1.34005 
    122     Zr9    Zr83      3.07021       1   0   0           -1.58793 
    123     Zr9    Cu84      3.04637       1   0   0           -0.52575 
    124     Zr9    Zr85      3.36858       1   0   0           -1.11943 
    125    Cu10    Zr11      3.42151       0   0   0           -0.26512 
    126    Cu10    Zr12      2.76416       0   0   0           -1.15663 
    127    Cu10    Zr14      4.02391       0   0   0           -0.07272 
    128    Cu10    Zr26      2.35637       0   0   0           -2.44203 
    129    Cu10    Cu28      3.89588       0   0   0           -0.00522 
    130    Cu10    Zr29      3.14340       0   0   0           -0.50317 
    131    Cu10    Zr33      4.04914       0   0   0           -0.03640 
    132    Cu10    Al34      2.54749       0   0   0           -1.40239 
    133    Cu10    Cu35      3.35640       0   0   0           -0.01106 
    134    Cu10    Cu36      2.65515       0   0   0           -0.23632 
    135    Cu10    Cu39      3.84881       0   0   0           -0.00647 
    136    Cu10    Zr40      3.82141       0   0   0           -0.05618 
    137    Cu10    Cu78      4.16790       1   0   0           -0.00927 
    138    Cu10    Zr85      3.16548       1   0   0           -0.60823 
    139    Zr11    Zr12      3.01111       0   0   0           -1.88408 
    140    Zr11    Cu15      2.82052       0   0   1           -0.96167 
    141    Zr11    Zr16      3.27361       0   0   0           -0.91115 
    142    Zr11    Zr38      3.61807       0   0   1           -0.84434 
    143    Zr11    Cu39      2.58543       0   0   0           -1.57747 
    144    Zr11    Zr40      3.66854       0   0   0           -0.54944 
    145    Zr11    Zr82      3.39916       1   0   0           -0.97620 
    146    Zr11    Zr83      3.08806       1   0   0           -1.49471 
    147    Zr11    Cu84      4.15322       1   0   0           -0.05629 
    148    Zr11    Zr87      3.89237       1   0   0           -0.36052 
    149    Zr11    Al89      2.61260       1   0   0           -2.87469 
    150    Zr12    Zr14      3.72932       0   0   0           -0.59058 
    151    Zr12    Cu17      2.86104       0   0   0           -0.66544 
    152    Zr12    Cu18      2.95926       0   0   0           -0.72630 
    153    Zr12    Al34      3.97887       0   0   0           -0.42323 
    154    Zr12    Cu36      3.07936       0   0   0           -0.55029 
    155    Zr12    Cu39      4.19427       0   0   0           -0.03898 
    156    Zr12    Zr40      2.97003       0   0   0           -2.27796 
    157    Zr12    Zr83      4.18083       1   0   0           -0.19051 
    158    Zr12    Cu84      3.21676       1   0   0           -0.38271 
    159    Zr12    Zr85      3.07860       1   0   0           -1.96179 
    160    Zr12    Al89      3.29201       1   0   0           -1.01726 
    161    Zr12    Zr90      3.16914       1   0   0           -1.24740 
    162    Zr12    Cu91      2.35163       1   0   0           -2.75878 
    163    Zr12    Cu92      4.17804       1   0   0           -0.08632 
    164    Zr13    Zr14      2.95909       0   0   0           -2.30447 
    165    Zr13    Cu15      3.06011       0   0   0           -0.54371 
    166    Zr13    Zr29      2.85208       0   0   0           -3.03924 
    167    Zr13    Cu30      2.93890       0   0   0           -0.74780 
    168    Zr13    Zr32      4.15556       0   0   0           -0.25353 
    169    Zr13    Zr38      3.76726       0   0   0           -0.48634 
    170    Zr13    Cu80      3.35449       1   0   0           -0.34067 
    171    Zr13    Zr81      3.84376       1   0   0           -0.38463 
    172    Zr13    Zr82      2.59367       1   0  -1           -4.97799 
    173    Zr13    Zr85      3.95121       1   0   0           -0.37375 
    174    Zr13    Cu86      2.80636       1   0   0           -0.90950 
    175    Zr14    Cu15      2.95857       0   0   0           -0.75779 
    176    Zr14    Cu18      3.11983       0   0   0           -0.48321 
    177    Zr14    Zr19      3.17547       0   0   0           -1.46421 
    178    Zr14    Cu20      2.94269       0   0   0           -0.75922 
    179    Zr14    Zr29      3.21590       0   0   0           -1.37204 
    180    Zr14    Cu35      3.68329       0   0   0           -0.19491 
    181    Zr14    Cu36      2.25950       0   0   0           -3.70262 
    182    Zr14    Zr37      3.45384       0   0   0           -0.84068 
    183    Zr14    Zr38      3.69321       0   0   0           -0.56590 
    184    Zr14    Zr41      3.98557       0   0   0           -0.33916 
    185    Zr14    Zr42      3.15874       0   0   0           -1.47771 
    186    Zr14    Zr85      3.71988       1   0   0           -0.57845 
    187    Zr14    Cu86      2.60272       1   0   0           -1.57780 
    188    Zr14    Cu91      3.54931       1   0   0           -0.24984 
    189    Cu15    Zr16      2.85576       0   0  -1           -0.72882 
    190    Cu15    Zr19      2.90010       0   0   0           -0.73324 
    191    Cu15    Cu20      3.09657       0   0   0           -0.09118 
    192    Cu15    Zr38      2.67244       0   0   0           -1.33101 
    193    Cu15    Cu39      3.89852       0   0  -1           -0.00120 
    194    Cu15    Zr82      2.68777       1   0  -1           -1.22920 
    195    Cu15    Zr83      3.84427       1   0  -1           -0.12212 
    196    Cu15    Cu86      2.89908       1   0   0           -0.10189 
    197    Cu15    Zr87      2.55381       1   0  -1           -1.57523 
    198    Cu15    Al89      4.01807       1   0  -1           -0.07926 
    199    Zr16    Zr19      2.51826       0   0   1           -6.38408 
    200    Zr16    Cu20      3.77844       0   0   1           -0.10205 
    201    Zr16    Cu21      2.96281       0   0   0           -0.75379 
    202    Zr16    Cu22      2.89427       0   0   0           -0.57964 
    203    Zr16    Cu24      3.44399       0   0   1           -0.23941 
    204    Zr16    Zr38      3.99390       0   0   1           -0.33220 
    205    Zr16    Cu39      3.55558       0   0   0           -0.18804 
    206    Zr16    Zr44      3.87449       0   0   1           -0.40687 
    207    Zr16    Cu45      3.46503       0   0   0           -0.23673 
    208    Zr16    Cu49      3.95979       0   0   1           -0.10616 
    209    Zr16    Zr50      2.99895       0   0   1           -2.17440 
    210    Zr16    Zr87      3.26522       1   0   0           -1.09497 
    211    Zr16    Zr88      4.12060       1   0   0           -0.29863 
    212    Zr16    Al89      2.55303       1   0   0           -3.42554 
    213    Zr16    Cu94      2.38880       1   0   0           -2.01202 
    214    Cu17    Cu18      2.37862       0   0   0           -0.72845 
    215    Cu17    Cu22      2.42141       0   0   0           -0.46823 
    216    Cu17    Zr23      2.70466       0   0   0           -1.24355 
    217    Cu17    Zr40      2.41747       0   0   0           -2.43099 
    218    Cu17    Zr42      3.77279       0   0   0           -0.10672 
    219    Cu17    Cu45      3.74850       0   0   0           -0.00914 
    220    Cu17    Al89      2.80690       1   0   0           -0.82655 
    221    Cu17    Zr90      2.84907       1   0   0           -0.74355 
    222    Cu17    Cu91      3.80046       1   0   0           -0.01336 
    223    Cu17    Cu92      3.41817       1   0   0           -0.05272 
    224    Cu17    Zr96      3.56002       1   0   0           -0.16268 
    225    Cu17    Zr97      2.51210       1   0   0           -1.83794 
    226    Cu17    Cu98      4.16571       1   0   0           -0.01228 
    227    Cu18    Zr19      3.66985       0   0   0           -0.13944 
    228    Cu18    Cu20      2.19846       0   0   0           -1.16423 
    229    Cu18    Zr23      3.73692       0   0   0           -0.10462 
    230    Cu18    Cu24      2.70285       0   0   0           -0.30048 
    231    Cu18    Cu25      3.35113       0   0   0           -0.04906 
    232    Cu18    Cu36      3.53193       0   0   0           -0.07365 
    233    Cu18    Zr40      3.49484       0   0   0           -0.24031 
    234    Cu18    Zr42      2.75258       0   0   0           -1.15034 
    235    Cu18    Cu86      3.83582       1   0   0           -0.00372 
    236    Cu18    Zr90      3.82059       1   0   0           -0.09324 
    237    Cu18    Cu91      2.63057       1   0   0           -0.41881 
    238    Cu18    Cu92      2.62671       1   0   0           -0.46536 
    239    Cu18    Cu93      3.66259       1   0   0            0.00667 
    240    Cu18    Zr97      2.83005       1   0   0           -0.96529 
    241    Cu18   Zr100      3.68716       1   0   0           -0.17584 
    242    Zr19    Cu20      3.14488       0   0   0           -0.45854 
    243    Zr19    Cu21      3.91016       0   0  -1           -0.11293 
    244    Zr19    Cu24      2.82838       0   0   0           -0.86928 
    245    Zr19    Cu25      2.93097       0   0   0           -0.70570 
    246    Zr19    Zr37      4.04501       0   0   0           -0.31296 
    247    Zr19    Zr38      3.25380       0   0   0           -1.22167 
    248    Zr19    Zr41      4.19523       0   0   0           -0.21765 
    249    Zr19    Zr42      2.56206       0   0   0           -5.54251 
    250    Zr19    Cu43      2.79958       0   0   0           -0.94750 
    251    Zr19    Zr44      3.94007       0   0   0           -0.39053 
    252    Zr19    Cu49      2.81962       0   0   0           -0.88910 
    253    Zr19    Zr50      3.27487       0   0   0           -1.12286 
    254    Zr19    Cu71      3.92295       0   0   0           -0.07896 
    255    Zr19    Zr87      4.17029       1   0  -1           -0.25352 
    256    Cu20    Cu24      2.43631       0   0   0           -0.49823 
    257    Cu20    Cu25      4.04056       0   0   0           -0.00805 
    258    Cu20    Zr42      3.86262       0   0   0           -0.10617 
    259    Cu20    Cu67      3.92817       1   0   0           -0.01312 
    260    Cu20    Cu86      2.48886       1   0   0           -0.53339 
    261    Cu20    Zr87      2.45411       1   0  -1           -2.08703 
    262    Cu20    Cu91      2.86464       1   0   0           -0.16984 
    263    Cu20    Cu92      3.03122       1   0   0           -0.10078 
    264    Cu20    Cu93      2.79929       1   0   0           -0.27083 
    265    Cu20   Zr100      2.62215       1   0   0           -1.43110 
    266    Cu21    Cu22      3.71397       0   0   0           -0.01744 
    267    Cu21    Cu24      2.59581       0   0   1           -0.38696 
    268    Cu21    Cu25      3.39303       0   0   1           -0.04841 
    269    Cu21    Zr50      2.54411       0   0   1           -1.81700 
    270    Cu21    Zr52      4.13703       1  -1   0           -0.04461 
    271    Cu21    Zr76      2.69997       1  -1   0           -1.17105 
    272    Cu21    Zr81      3.05272       1  -1   1           -0.51609 
    273    Cu21    Cu94      2.19051       1   0   0           -1.10019 
    274    Cu21    Cu95      2.95145       1   0   0           -0.12135 
    275    Cu21    Zr96      3.97349       1   0   0           -0.07958 
    276    Cu21   Zr100      3.37581       1   0   1           -0.32267 
    277    Cu22    Zr23      3.17180       0   0   0           -0.50778 
    278    Cu22    Cu39      4.14353       0   0   0           -0.00297 
    279    Cu22    Zr40      3.24151       0   0   0           -0.37914 
    280    Cu22    Cu45      2.55684       0   0   0           -0.54928 
    281    Cu22    Zr50      3.51475       0   0   1           -0.26170 
    282    Cu22    Zr76      2.99053       1  -1   0           -0.70928 
    283    Cu22    Cu78      4.00896       1  -1   0           -0.02154 
    284    Cu22    Al89      2.47032       1   0   0           -1.58331 
    285    Cu22    Zr90      3.90925       1   0   0           -0.04035 
    286    Cu22    Cu94      2.98885       1   0   0           -0.07152 
    287    Cu22    Zr96      2.90328       1   0   0           -0.66690 
    288    Cu22    Zr97      3.93896       1   0   0           -0.08990 
    289    Zr23    Cu24      4.19135       0   0   0           -0.04225 
    290    Zr23    Cu25      3.04713       0   0   0           -0.58871 
    291    Zr23    Cu27      4.17015       0  -1   0           -0.03219 
    292    Zr23    Cu28      2.92107       0  -1   0           -0.74739 
    293    Zr23    Zr29      4.16449       0  -1   0           -0.32944 
    294    Zr23    Zr40      3.67675       0   0   0           -0.65795 
    295    Zr23    Zr42      3.69463       0   0   0           -0.58776 
    296    Zr23    Cu45      3.98250       0   0   0           -0.06130 
    297    Zr23    Zr47      3.10359       0   0   0           -1.81113 
    298    Zr23    Zr48      4.12142       0   0   0           -0.28621 
    299    Zr23    Cu78      3.37122       1  -1   0           -0.33770 
    300    Zr23    Zr97      2.57574       1   0   0           -5.25741 
    301    Cu24    Cu25      2.05507       0   0   0           -1.33030 
    302    Cu24    Zr42      3.44615       0   0   0           -0.24370 
    303    Cu24    Zr50      3.77618       0   0   0           -0.10442 
    304    Cu24    Zr81      4.15422       1  -1   0           -0.08403 
    305    Cu24    Zr87      3.98252       1   0  -1           -0.08619 
    306    Cu24    Cu92      3.49574       1   0   0           -0.00451 
    307    Cu24    Cu94      3.59977       1   0  -1           -0.01435 
    308    Cu24    Cu95      3.92133       1   0  -1           -0.00910 
    309    Cu24    Zr97      3.19130       1   0   0           -0.50561 
    310    Cu24    Cu99      3.73217       1   0   0           -0.01448 
    311    Cu24   Zr100      2.32256       1   0   0           -2.89948 
    312    Cu25    Cu28      3.92594       0  -1   0           -0.00770 
    313    Cu25    Zr42      2.57137       0   0   0           -1.53089 
    314    Cu25    Zr47      3.77955       0   0   0           -0.15676 
    315    Cu25    Zr48      2.64524       0   0   0           -1.36649 
    316    Cu25    Cu49      3.44095       0   0   0           -0.04737 
    317    Cu25    Zr50      3.32604       0   0   0           -0.36370 
    318    Cu25    Zr97      3.50214       1   0   0           -0.17510 
    319    Zr26    Cu27      2.91826       0   0   0           -0.68165 
    320    Zr26    Cu28      2.76708       0   0   0           -1.07799 
    321    Zr26    Zr29      3.61881       0   0   0           -0.72751 
    322    Zr26    Zr32      3.23623       0   0   1           -1.39949 
    323    Zr26    Zr33      3.08478       0   0   0           -1.40988 
    324    Zr26    Al34      2.83150       0   0   0           -2.15534 
    325    Zr26    Cu35      3.13140       0   0   0           -0.41801 
    326    Zr26    Cu36      4.03890       0   0   0           -0.02822 
    327    Zr26    Zr46      3.92461       0   1   0           -0.42571 
    328    Zr26    Zr51      2.79425       0   0   0           -3.34999 
    329    Zr26    Cu53      3.52742       0   0   0           -0.20700 
    330    Zr26    Zr57      3.83003       0   0   0           -0.34957 
    331    Zr26    Cu61      4.16219       0   0   1           -0.05131 
    332    Cu27    Cu28      1.92399       0   0   0           -1.70874 
    333    Cu27    Cu35      4.01521       0   0   0           -0.00462 
    334    Cu27    Zr46      2.72302       0   1   0           -1.13917 
    335    Cu27    Zr47      2.82406       0   1   0           -0.93307 
    336    Cu27    Zr48      3.84427       0   1   0           -0.08835 
    337    Cu27    Zr51      2.55044       0   0   0           -1.76640 
    338    Cu27    Zr52      3.44078       0   0   0           -0.30245 
    339    Cu27    Cu53      2.45135       0   0   0           -0.51850 
    340    Cu27    Zr57      4.10624       0   0   0           -0.07455 
    341    Cu27    Cu68      3.80109       0   1   0           -0.00205 
    342    Cu27    Cu69      2.55768       0   1   0           -0.57464 
    343    Cu27    Zr70      3.61337       0   1   0           -0.20587 
    344    Cu27    Cu74      3.50903       0   1   1           -0.06562 
    345    Cu27    Cu95      3.84249       0   1   0           -0.00033 
    346    Cu28    Zr29      2.56231       0   0   0           -1.82789 
    347    Cu28    Cu35      3.32366       0   0   0           -0.07806 
    348    Cu28    Zr46      3.93549       0   1   0           -0.08545 
    349    Cu28    Zr47      2.94391       0   1   0           -0.73330 
    350    Cu28    Zr48      2.85222       0   1   0           -0.97261 
    351    Cu28    Zr51      3.99402       0   0   0           -0.08825 
    352    Cu28    Cu53      2.58687       0   0   0           -0.45065 
    353    Cu28    Cu69      3.91092       0   1   0           -0.01550 
    354    Cu28    Zr70      4.04108       0   1   0           -0.06047 
    355    Zr29    Cu30      3.40466       0   0   0           -0.25786 
    356    Zr29    Cu35      2.41788       0   0   0           -2.38925 
    357    Zr29    Cu36      3.28565       0   0   0           -0.39916 
    358    Zr29    Zr37      3.84908       0   0   0           -0.46416 
    359    Zr29    Zr48      3.59912       0   1   0           -0.73694 
    360    Zr29    Cu53      3.39338       0   0   0           -0.32476 
    361    Zr29    Zr54      3.98380       0   0   0           -0.33470 
    362    Zr29    Zr85      3.49891       1   0   0           -0.94804 
    363    Cu30    Zr31      3.18372       0   0   0           -0.38042 
    364    Cu30    Zr32      2.62746       0   0   0           -1.46758 
    365    Cu30    Cu35      3.96899       0   0   0           -0.02739 
    366    Cu30    Zr37      2.70710       0   0   0           -1.04229 
    367    Cu30    Zr38      2.91817       0   0   0           -0.77875 
    368    Cu30    Zr48      3.66337       0   1   0           -0.23239 
    369    Cu30    Zr54      2.21772       0   0   0           -3.50409 
    370    Cu30    Cu58      3.87806       0   0   0           -0.02945 
    371    Cu30    Cu61      2.85022       0   0   0           -0.18429 
    372    Zr31    Zr32      2.59130       0   0   0           -5.11236 
    373    Zr31    Zr46      2.92685       0   1  -1           -2.44662 
    374    Zr31    Zr48      3.70118       0   1   0           -0.58403 
    375    Zr31    Cu49      3.02767       0   1   0           -0.58654 
    376    Zr31    Zr50      3.26081       0   1   0           -1.23109 
    377    Zr31    Zr51      3.96401       0   0  -1           -0.33159 
    378    Zr31    Zr54      3.09268       0   0   0           -1.67070 
    379    Zr31    Zr55      2.92907       0   0   0           -2.24887 
    380    Zr31    Cu61      3.28668       0   0   0           -0.37243 
    381    Zr31    Zr70      4.15589       0   1   0           -0.35130 
    382    Zr31    Cu71      4.02860       0   1   0           -0.06162 
    383    Zr31    Cu72      2.17138       0   1   0           -3.95373 
    384    Zr31    Zr73      3.55794       0   1   0           -0.77296 
    385    Zr31    Cu74      3.58643       0   1   0           -0.14121 
    386    Zr31    Zr79      4.08785       0   0   0           -0.35635 
    387    Zr31    Cu98      4.16878       0   1   0           -0.08475 
    388    Zr31    Cu99      4.15188       0   1   0           -0.02846 
    389    Zr32    Zr33      4.13019       0   0  -1           -0.34928 
    390    Zr32    Zr38      3.92709       0   0   0           -0.49887 
    391    Zr32    Zr46      3.63250       0   1  -1           -0.54493 
    392    Zr32    Zr50      3.38628       0   1   0           -1.06691 
    393    Zr32    Zr51      3.99471       0   0  -1           -0.31296 
    394    Zr32    Zr54      4.12084       0   0   0           -0.38583 
    395    Zr32    Cu61      2.99202       0   0   0           -0.64118 
    396    Zr33    Al34      2.38063       0   0   0           -4.71532 
    397    Zr33    Zr38      3.86005       0   0   1           -0.50117 
    398    Zr33    Cu39      2.78187       0   0   0           -0.83716 
    399    Zr33    Zr44      3.73208       0   0   1           -0.62562 
    400    Zr33    Zr51      3.33827       0   0   0           -1.08169 
    401    Zr33    Cu56      3.41006       0   0   0           -0.28709 
    402    Zr33    Zr57      3.75587       0   0   0           -0.34207 
    403    Zr33    Zr59      4.18618       0   0   1           -0.32699 
    404    Zr33    Zr60      2.99039       0   0   1           -2.25030 
    405    Zr33    Cu61      2.72235       0   0   1           -1.26934 
    406    Zr33    Zr62      3.47257       0   0   0           -0.67042 
    407    Zr33    Cu66      2.59154       0   0   1           -1.68958 
    408    Zr33    Cu67      3.02949       0   0   1           -0.59838 
    409    Zr33    Cu93      3.89050       0   0   1           -0.09223 