
     Program PWSCF v.6.2 (svn rev. 13949:13950) starts on 19Apr2019 at 16:54:37 

     This program is part of the open-source Quantum ESPRESSO suite
     for quantum simulation of materials; please cite
         "P. Giannozzi et al., J. Phys.:Condens. Matter 21 395502 (2009);
         "P. Giannozzi et al., J. Phys.:Condens. Matter 29 465901 (2017);
          URL http://www.quantum-espresso.org", 
     in publications or presentations arising from this work. More details at
     http://www.quantum-espresso.org/quote

     Parallel version (MPI & OpenMP), running on     192 processor cores
     Number of MPI processes:               192
     Threads/MPI process:                     1

     MPI processes distributed on     8 nodes
     K-points division:     npool     =       8
     R & G space division:  proc/nbgrp/npool/nimage =      24
     Waiting for input...
     Reading input from standard input

     Current dimensions of program PWSCF are:
     Max number of different atomic species (ntypx) = 10
     Max number of k-points (npk) =  40000
     Max angular momentum in pseudopotentials (lmaxx) =  3
               file Al.aryjr-1.0.0-ld1.UPF: wavefunction(s)  3S 3P renormalized
               file Cu.aryjr-1.0.0-ld1.UPF: wavefunction(s)  4S 3P 3D renormalized
               file Zr.aryjr-1.0.0-ld1.UPF: wavefunction(s)  4S 4P renormalized

     Subspace diagonalization in iterative solution of the eigenvalue problem:
     one sub-group per band group will be used
     scalapack distributed-memory algorithm (size of sub-group:  3*  3 procs)

 
     Parallelization info
     --------------------
     sticks:   dense  smooth     PW     G-vecs:    dense   smooth      PW
     Min        1072     536    138               109499    38711    5089
     Max        1073     538    139               109503    38713    5092
     Sum       25749   12867   3333              2628049   929093  122183
 

     Title: 
     Zr49Cu49Al2                                                                


     bravais-lattice index     =            0
     lattice parameter (alat)  =      25.4134  a.u.
     unit-cell volume          =   11744.1708 (a.u.)^3
     number of atoms/cell      =          100
     number of atomic types    =            3
     number of electrons       =      1525.00
     number of Kohn-Sham states=         1086
     kinetic-energy cutoff     =      70.0000  Ry
     charge density cutoff     =     560.0000  Ry
     convergence threshold     =      1.0E-06
     mixing beta               =       0.4000
     number of iterations used =            8  plain     mixing
     Exchange-correlation      =  SLA  PW   PBX  PBC ( 1  4  3  4 0 0)

     celldm(1)=  25.413382  celldm(2)=   0.000000  celldm(3)=   0.000000
     celldm(4)=   0.000000  celldm(5)=   0.000000  celldm(6)=   0.000000

     crystal axes: (cart. coord. in units of alat)
               a(1) = (   0.894427   0.000000   0.447214 )  
               a(2) = (   0.000000   0.894427   0.000000 )  
               a(3) = (   0.000000   0.000000   0.894427 )  

     reciprocal axes: (cart. coord. in units 2 pi/alat)
               b(1) = (  1.118034  0.000000  0.000000 )  
               b(2) = (  0.000000  1.118034  0.000000 )  
               b(3) = ( -0.559017  0.000000  1.118034 )  


     PseudoPot. # 1 for Al read from file:
     /scratch/rmnvm/ary.junior/UPFs/Al.aryjr-1.0.0-ld1.UPF
     MD5 check sum: 23518be3108914e66f28d0b5ae5ea896
     Pseudo is Projector augmented-wave + core cor, Zval =  3.0
     Generated using "atomic" code by A. Dal Corso  v.5.3.0 svn rev. 11974
     Shape of augmentation charge: PSQ
     Using radial grid of 1135 points,  4 beta functions with: 
                l(1) =   0
                l(2) =   0
                l(3) =   1
                l(4) =   1
     Q(r) pseudized with 0 coefficients 


     PseudoPot. # 2 for Cu read from file:
     /scratch/rmnvm/ary.junior/UPFs/Cu.aryjr-1.0.0-ld1.UPF
     MD5 check sum: 9308548b6d8348cb0f7fa79efd90ef1e
     Pseudo is Projector augmented-wave + core cor, Zval = 19.0
     Generated using "atomic" code by A. Dal Corso  v.5.3.0 svn rev. 11974
     Shape of augmentation charge: PSQ
     Using radial grid of 1199 points,  6 beta functions with: 
                l(1) =   0
                l(2) =   0
                l(3) =   1
                l(4) =   1
                l(5) =   2
                l(6) =   2
     Q(r) pseudized with 0 coefficients 


     PseudoPot. # 3 for Zr read from file:
     /scratch/rmnvm/ary.junior/UPFs/Zr.aryjr-1.0.0-ld1.UPF
     MD5 check sum: 20f111a850f3481eb9ed9a4dbb9cca44
     Pseudo is Projector augmented-wave + core cor, Zval = 12.0
     Generated using "atomic" code by A. Dal Corso  v.5.3.0 svn rev. 11974
     Shape of augmentation charge: PSQ
     Using radial grid of 1225 points,  6 beta functions with: 
                l(1) =   0
                l(2) =   0
                l(3) =   1
                l(4) =   1
                l(5) =   2
                l(6) =   2
     Q(r) pseudized with 0 coefficients 


     atomic species   valence    mass     pseudopotential
        Al             3.00    26.98150     Al( 1.00)
        Cu            19.00    63.54630     Cu( 1.00)
        Zr            12.00    91.22400     Zr( 1.00)

     No symmetry found


                                    s                        frac. trans.

      isym =  1     identity                                     

 cryst.   s( 1) = (     1          0          0      )
                  (     0          1          0      )
                  (     0          0          1      )

 cart.    s( 1) = (  1.0000000  0.0000000  0.0000000 )
                  (  0.0000000  1.0000000  0.0000000 )
                  (  0.0000000  0.0000000  1.0000000 )


   Cartesian axes

     site n.     atom                  positions (alat units)
         1           Cu  tau(   1) = (   0.1370745   0.2037138   0.2087700  )
         2           Zr  tau(   2) = (   0.2354535  -0.0170004   0.2776530  )
         3           Cu  tau(   3) = (   0.1583673   0.1176726   0.3809410  )
         4           Cu  tau(   4) = (   0.0931099   0.0546611   0.5755075  )
         5           Zr  tau(   5) = (   0.0160147   0.0292648   0.7197031  )
         6           Cu  tau(   6) = (   0.2328444   0.0587048   0.7808215  )
         7           Cu  tau(   7) = (   0.1053412   0.0915634   0.9347869  )
         8           Cu  tau(   8) = (   0.2332308   0.3175064   0.1577009  )
         9           Zr  tau(   9) = (  -0.0118529   0.2430812   0.2682289  )
        10           Cu  tau(  10) = (   0.1954950   0.2938730   0.3990201  )
        11           Zr  tau(  11) = (   0.1030595   0.4203128   0.1985226  )
        12           Zr  tau(  12) = (   0.0550108   0.4429436   0.4160365  )
        13           Zr  tau(  13) = (   0.1239130   0.2256828   0.7833246  )
        14           Zr  tau(  14) = (   0.1584952   0.4119696   0.6714434  )
        15           Cu  tau(  15) = (   0.1020139   0.4288689   0.8833949  )
        16           Zr  tau(  16) = (   0.1054512   0.6258727   0.0681598  )
        17           Cu  tau(  17) = (   0.0693396   0.6551080   0.4095886  )
        18           Cu  tau(  18) = (   0.0533070   0.5949452   0.5751404  )
        19           Zr  tau(  19) = (   0.2019956   0.6025890   0.8038351  )
        20           Cu  tau(  20) = (  -0.0081527   0.5457696   0.7184196  )
        21           Cu  tau(  21) = (   0.0368334   0.8239356   0.0003323  )
        22           Cu  tau(  22) = (   0.1056784   0.7361610   0.2529691  )
        23           Zr  tau(  23) = (   0.1576482   0.8273568   0.4641782  )
        24           Cu  tau(  24) = (   0.0421069   0.7192357   0.7326857  )
        25           Cu  tau(  25) = (   0.1726218   0.7835531   0.6859823  )
        26           Zr  tau(  26) = (   0.3373359   0.1999921   0.3569601  )
        27           Cu  tau(  27) = (   0.4499309   0.0331493   0.4380457  )
        28           Cu  tau(  28) = (   0.3280356   0.0603792   0.5078186  )
        29           Zr  tau(  29) = (   0.2377906   0.1957883   0.6069279  )
        30           Cu  tau(  30) = (   0.3334103   0.2029903   0.8412338  )
        31           Zr  tau(  31) = (   0.4390752   0.0238410   0.9543104  )
        32           Zr  tau(  32) = (   0.2991304   0.1376157   1.0221290  )
        33           Zr  tau(  33) = (   0.4481357   0.3735772   0.2559256  )
        34           Al  tau(  34) = (   0.3480449   0.4061746   0.3982500  )
        35           Cu  tau(  35) = (   0.3819311   0.2947138   0.5649453  )
        36           Cu  tau(  36) = (   0.2515934   0.4280890   0.5325115  )
        37           Zr  tau(  37) = (   0.3963404   0.3769071   0.7617738  )
        38           Zr  tau(  38) = (   0.2979239   0.4063928   0.9079755  )
        39           Cu  tau(  39) = (   0.2827311   0.4880862   0.2077643  )
        40           Zr  tau(  40) = (   0.2286165   0.5757088   0.3842705  )
        41           Zr  tau(  41) = (   0.4281596   0.5166140   0.6069239  )
        42           Zr  tau(  42) = (   0.2510237   0.6218219   0.6207454  )
        43           Cu  tau(  43) = (   0.4061576   0.5670463   0.8236243  )
        44           Zr  tau(  44) = (   0.3848345   0.6166387   1.0323318  )
        45           Cu  tau(  45) = (   0.2883240   0.6850391   0.2397539  )
        46           Zr  tau(  46) = (   0.4262965   0.8339013   0.2600976  )
        47           Zr  tau(  47) = (   0.3698966   0.7406403   0.4904632  )
        48           Zr  tau(  48) = (   0.3508409   0.8657724   0.6989600  )
        49           Cu  tau(  49) = (   0.3577700   0.7331691   0.8552446  )
        50           Zr  tau(  50) = (   0.2229503   0.8119324   0.9264611  )
        51           Zr  tau(  51) = (   0.5328219   0.1467916   0.3108398  )
        52           Zr  tau(  52) = (   0.6775760   0.0712858   0.5484310  )
        53           Cu  tau(  53) = (   0.4839289   0.1545758   0.5696745  )
        54           Zr  tau(  54) = (   0.4791661   0.1627169   0.7754460  )
        55           Zr  tau(  55) = (   0.6204149   0.1210679   1.0257349  )
        56           Cu  tau(  56) = (   0.6258289   0.4417370   0.4234880  )
        57           Zr  tau(  57) = (   0.5504645   0.3127061   0.5085588  )
        58           Cu  tau(  58) = (   0.5513124   0.3424860   0.7138880  )
        59           Zr  tau(  59) = (   0.6624477   0.3064120   0.9348164  )
        60           Zr  tau(  60) = (   0.6629924   0.3198203   1.1701612  )
        61           Cu  tau(  61) = (   0.4786053   0.2632603   0.9833775  )
        62           Zr  tau(  62) = (   0.4668284   0.5905572   0.3946597  )
        63           Cu  tau(  63) = (   0.6050228   0.4850175   0.6166136  )
        64           Cu  tau(  64) = (   0.5830664   0.6699993   0.6324852  )
        65           Zr  tau(  65) = (   0.5980113   0.5179574   0.8530631  )
        66           Cu  tau(  66) = (   0.5123190   0.4544316   0.9876310  )
        67           Cu  tau(  67) = (   0.5941832   0.5445192   1.1643532  )
        68           Cu  tau(  68) = (   0.5771765   0.7075545   0.3144005  )
        69           Cu  tau(  69) = (   0.5696768   0.7932102   0.4995108  )
        70           Zr  tau(  70) = (   0.5637807   0.8729591   0.6752138  )
        71           Cu  tau(  71) = (   0.4736037   0.6971962   0.7551278  )
        72           Cu  tau(  72) = (   0.5583596   0.8596760   0.8626129  )
        73           Zr  tau(  73) = (   0.5603202   0.6848772   0.9830099  )
        74           Cu  tau(  74) = (   0.6141790   0.8521485   1.1442778  )
        75           Cu  tau(  75) = (   0.7138191   0.2403469   0.4730473  )
        76           Zr  tau(  76) = (   0.9044269   0.0263480   0.6213559  )
        77           Zr  tau(  77) = (   0.6864165   0.2012971   0.7278996  )
        78           Cu  tau(  78) = (   0.8679888   0.0787257   0.8236588  )
        79           Zr  tau(  79) = (   0.7364481   0.0648370   0.9064912  )
        80           Cu  tau(  80) = (   0.7990947   0.1965128   1.1152125  )
        81           Zr  tau(  81) = (   0.7769934   0.0760022   1.2627930  )
        82           Zr  tau(  82) = (   0.8928924   0.2630564   0.4777538  )
        83           Zr  tau(  83) = (   0.7706823   0.4123139   0.6107484  )
        84           Cu  tau(  84) = (   0.7274314   0.3891635   0.7922858  )
        85           Zr  tau(  85) = (   0.8927868   0.2462197   0.9657005  )
        86           Cu  tau(  86) = (   0.8726828   0.3612091   1.1675803  )
        87           Zr  tau(  87) = (   0.8169215   0.4905531   0.4307132  )
        88           Zr  tau(  88) = (   0.6934870   0.6247100   0.5181193  )
        89           Al  tau(  89) = (   0.8988009   0.5857380   0.6709769  )
        90           Zr  tau(  90) = (   0.7725042   0.5847040   0.7989694  )
        91           Cu  tau(  91) = (   0.8263872   0.4455455   0.9874668  )
        92           Cu  tau(  92) = (   0.7588356   0.6420520   1.0065919  )
        93           Cu  tau(  93) = (   0.7010529   0.4973266   1.0839380  )
        94           Cu  tau(  94) = (   0.8489635   0.7166830   0.5384067  )
        95           Cu  tau(  95) = (   0.7120240   0.8140432   0.4455674  )
        96           Zr  tau(  96) = (   0.7888901   0.7807482   0.7028221  )
        97           Zr  tau(  97) = (   0.8726094   0.7813600   0.9599739  )
        98           Cu  tau(  98) = (   0.6652875   0.7370161   0.8444538  )
        99           Cu  tau(  99) = (   0.7188028   0.8200198   1.0404210  )
       100           Zr  tau( 100) = (   0.7669275   0.6955495   1.2022430  )

   Crystallographic axes

     site n.     atom                  positions (cryst. coord.)
         1           Cu  tau(   1) = (  0.1532540  0.2277590  0.1567850  )
         2           Zr  tau(   2) = (  0.2632450 -0.0190070  0.1788030  )
         3           Cu  tau(   3) = (  0.1770600  0.1315620  0.3373750  )
         4           Cu  tau(   4) = (  0.1041000  0.0611130  0.5913870  )
         5           Zr  tau(   5) = (  0.0179050  0.0327190  0.7957000  )
         6           Cu  tau(   6) = (  0.2603280  0.0656340  0.7428210  )
         7           Cu  tau(   7) = (  0.1177750  0.1023710  0.9862360  )
         8           Cu  tau(   8) = (  0.2607600  0.3549830  0.0459350  )
         9           Zr  tau(   9) = ( -0.0132520  0.2717730  0.3065150  )
        10           Cu  tau(  10) = (  0.2185700  0.3285600  0.3368330  )
        11           Zr  tau(  11) = (  0.1152240  0.4699240  0.1643430  )
        12           Zr  tau(  12) = (  0.0615040  0.4952260  0.4343910  )
        13           Zr  tau(  13) = (  0.1385390  0.2523210  0.8065140  )
        14           Zr  tau(  14) = (  0.1772030  0.4605960  0.6620950  )
        15           Cu  tau(  15) = (  0.1140550  0.4794900  0.9306380  )
        16           Zr  tau(  16) = (  0.1178980  0.6997470  0.0172560  )
        17           Cu  tau(  17) = (  0.0775240  0.7324330  0.4191720  )
        18           Cu  tau(  18) = (  0.0595990  0.6651690  0.6132270  )
        19           Zr  tau(  19) = (  0.2258380  0.6737150  0.7857960  )
        20           Cu  tau(  20) = ( -0.0091150  0.6101890  0.8077750  )
        21           Cu  tau(  21) = (  0.0411810  0.9211880 -0.0202190  )
        22           Cu  tau(  22) = (  0.1181520  0.8230530  0.2237520  )
        23           Zr  tau(  23) = (  0.1762560  0.9250130  0.4308390  )
        24           Cu  tau(  24) = (  0.0470770  0.8041300  0.7956290  )
        25           Cu  tau(  25) = (  0.1929970  0.8760390  0.6704530  )
        26           Zr  tau(  26) = (  0.3771530  0.2235980  0.2105170  )
        27           Cu  tau(  27) = (  0.5030380  0.0370620  0.2382310  )
        28           Cu  tau(  28) = (  0.3667550  0.0675060  0.3843810  )
        29           Zr  tau(  29) = (  0.2658580  0.2188980  0.5456370  )
        30           Cu  tau(  30) = (  0.3727640  0.2269500  0.7541460  )
        31           Zr  tau(  31) = (  0.4909010  0.0266550  0.8215010  )
        32           Zr  tau(  32) = (  0.3344380  0.1538590  0.9755560  )
        33           Zr  tau(  33) = (  0.5010310  0.4176720  0.0356180  )
        34           Al  tau(  34) = (  0.3891260  0.4541170  0.2506940  )
        35           Cu  tau(  35) = (  0.4270120  0.3295000  0.4181220  )
        36           Cu  tau(  36) = (  0.2812900  0.4786180  0.4547210  )
        37           Zr  tau(  37) = (  0.4431220  0.4213950  0.6301280  )
        38           Zr  tau(  38) = (  0.3330890  0.4543610  0.8486030  )
        39           Cu  tau(  39) = (  0.3161030  0.5456970  0.0742360  )
        40           Zr  tau(  40) = (  0.2556010  0.6436620  0.3018270  )
        41           Zr  tau(  41) = (  0.4786970  0.5775920  0.4392130  )
        42           Zr  tau(  42) = (  0.2806530  0.6952180  0.5536880  )
        43           Cu  tau(  43) = (  0.4540980  0.6339770  0.6937910  )
        44           Zr  tau(  44) = (  0.4302580  0.6894230  0.9390530  )
        45           Cu  tau(  45) = (  0.3223560  0.7658970  0.1068750  )
        46           Zr  tau(  46) = (  0.4766140  0.9323300  0.0524910  )
        47           Zr  tau(  47) = (  0.4135570  0.8280610  0.3415760  )
        48           Zr  tau(  48) = (  0.3922520  0.9679630  0.5853350  )
        49           Cu  tau(  49) = (  0.3999990  0.8197080  0.7561930  )
        50           Zr  tau(  50) = (  0.2492660  0.9077680  0.9111820  )
        51           Zr  tau(  51) = (  0.5957130  0.1641180  0.0496730  )
        52           Zr  tau(  52) = (  0.7575530  0.0797000  0.2343880  )
        53           Cu  tau(  53) = (  0.5410490  0.1728210  0.3663910  )
        54           Zr  tau(  54) = (  0.5357240  0.1819230  0.5991130  )
        55           Zr  tau(  55) = (  0.6936450  0.1353580  0.7999840  )
        56           Cu  tau(  56) = (  0.6996980  0.4938770  0.1236250  )
        57           Zr  tau(  57) = (  0.6154380  0.3496160  0.2608670  )
        58           Cu  tau(  58) = (  0.6163860  0.3829110  0.4899580  )
        59           Zr  tau(  59) = (  0.7406390  0.3425790  0.6748370  )
        60           Zr  tau(  60) = (  0.7412480  0.3575700  0.9376560  )
        61           Cu  tau(  61) = (  0.5350970  0.2943340  0.8319010  )
        62           Zr  tau(  62) = (  0.5219300  0.6602630  0.1802780  )
        63           Cu  tau(  63) = (  0.6764360  0.5422660  0.3511770  )
        64           Cu  tau(  64) = (  0.6518880  0.7490820  0.3811960  )
        65           Zr  tau(  65) = (  0.6685970  0.5790940  0.6194550  )
        66           Cu  tau(  66) = (  0.5727900  0.5080700  0.8178100  )
        67           Cu  tau(  67) = (  0.6643170  0.6087910  0.9696280  )
        68           Cu  tau(  68) = (  0.6453030  0.7910700  0.0288590  )
        69           Cu  tau(  69) = (  0.6369180  0.8868360  0.2400110  )
        70           Zr  tau(  70) = (  0.6303260  0.9759980  0.4397490  )
        71           Cu  tau(  71) = (  0.5295050  0.7794890  0.5795060  )
        72           Cu  tau(  72) = (  0.6242650  0.9611470  0.6522980  )
        73           Zr  tau(  73) = (  0.6264570  0.7657160  0.7858100  )
        74           Cu  tau(  74) = (  0.6866730  0.9527310  0.9360050  )
        75           Cu  tau(  75) = (  0.7980740  0.2687160  0.1298460  )
        76           Zr  tau(  76) = (  1.0111800  0.0294580  0.1891070  )
        77           Zr  tau(  77) = (  0.7674370  0.2250570  0.4300980  )
        78           Cu  tau(  78) = (  0.9704410  0.0880180  0.4356580  )
        79           Zr  tau(  79) = (  0.8233740  0.0724900  0.6018010  )
        80           Cu  tau(  80) = (  0.8934150  0.2197080  0.8001380  )
        81           Zr  tau(  81) = (  0.8687050  0.0849730  0.9774930  )
        82           Zr  tau(  82) = (  0.9982840  0.2941060  0.0350030  )
        83           Zr  tau(  83) = (  0.8616490  0.4609810  0.2520130  )
        84           Cu  tau(  84) = (  0.8132930  0.4350980  0.4791560  )
        85           Zr  tau(  85) = (  0.9981660  0.2752820  0.5806030  )
        86           Cu  tau(  86) = (  0.9756890  0.4038440  0.8175500  )
        87           Zr  tau(  87) = (  0.9133460  0.5484550  0.0248790  )
        88           Zr  tau(  88) = (  0.7753420  0.6984470  0.1916040  )
        89           Al  tau(  89) = (  1.0048900  0.6548750  0.2477300  )
        90           Zr  tau(  90) = (  0.8636860  0.6537190  0.4614320  )
        91           Cu  tau(  91) = (  0.9239290  0.4981350  0.6420570  )
        92           Cu  tau(  92) = (  0.8484040  0.7178360  0.7012020  )
        93           Cu  tau(  93) = (  0.7838010  0.5560280  0.8199790  )
        94           Cu  tau(  94) = (  0.9491700  0.8012760  0.1273720  )
        95           Cu  tau(  95) = (  0.7960670  0.9101280  0.1001260  )
        96           Zr  tau(  96) = (  0.8820060  0.8729030  0.3447760  )
        97           Zr  tau(  97) = (  0.9756070  0.8735870  0.5854800  )
        98           Cu  tau(  98) = (  0.7438140  0.8240090  0.5722210  )
        99           Cu  tau(  99) = (  0.8036460  0.9168100  0.7614030  )
       100           Zr  tau( 100) = (  0.8574510  0.7776480  0.9154230  )

     number of k points=     8  Fermi-Dirac smearing, width (Ry)=  0.0080
                       cart. coord. in units 2pi/alat
        k(    1) = (   0.1397542   0.2795085   0.2795085), wk =   0.2500000
        k(    2) = (   0.4192627   0.2795085  -0.2795085), wk =   0.2500000
        k(    3) = (   0.1397542  -0.2795085   0.2795085), wk =   0.2500000
        k(    4) = (   0.4192627  -0.2795085  -0.2795085), wk =   0.2500000
        k(    5) = (  -0.4192627   0.2795085   0.2795085), wk =   0.2500000
        k(    6) = (  -0.1397542   0.2795085  -0.2795085), wk =   0.2500000
        k(    7) = (  -0.4192627  -0.2795085   0.2795085), wk =   0.2500000
        k(    8) = (  -0.1397542  -0.2795085  -0.2795085), wk =   0.2500000

                       cryst. coord.
        k(    1) = (   0.2500000   0.2500000   0.2500000), wk =   0.2500000
        k(    2) = (   0.2500000   0.2500000  -0.2500000), wk =   0.2500000
        k(    3) = (   0.2500000  -0.2500000   0.2500000), wk =   0.2500000
        k(    4) = (   0.2500000  -0.2500000  -0.2500000), wk =   0.2500000
        k(    5) = (  -0.2500000   0.2500000   0.2500000), wk =   0.2500000
        k(    6) = (  -0.2500000   0.2500000  -0.2500000), wk =   0.2500000
        k(    7) = (  -0.2500000  -0.2500000   0.2500000), wk =   0.2500000
        k(    8) = (  -0.2500000  -0.2500000  -0.2500000), wk =   0.2500000

     Dense  grid:  2628049 G-vectors     FFT dimensions: ( 192, 180, 180)

     Smooth grid:   929093 G-vectors     FFT dimensions: ( 135, 125, 125)

     Dynamical RAM for                 wfc:      80.19 MB

     Dynamical RAM for     wfc (w. buffer):      80.19 MB

     Dynamical RAM for           str. fact:       5.01 MB

     Dynamical RAM for           local pot:       0.00 MB

     Dynamical RAM for          nlocal pot:     131.43 MB

     Dynamical RAM for                qrad:      23.01 MB

     Dynamical RAM for          rho,v,vnew:      11.34 MB

     Dynamical RAM for               rhoin:       3.78 MB

     Dynamical RAM for            rho*nmix:      26.73 MB

     Dynamical RAM for           G-vectors:       6.56 MB

     Dynamical RAM for          h,s,v(r/c):      95.98 MB

     Dynamical RAM for          <psi|beta>:      29.50 MB

     Dynamical RAM for                 psi:     320.75 MB

     Dynamical RAM for                hpsi:     320.75 MB

     Dynamical RAM for                spsi:     320.75 MB

     Dynamical RAM for      wfcinit/wfcrot:     197.10 MB

     Dynamical RAM for           addusdens:     392.66 MB

     Dynamical RAM for          addusforce:     809.93 MB

     Estimated static dynamical RAM per process >     305.29 MB

     Estimated max dynamical RAM per process >       1.36 GB

     Estimated total dynamical RAM >     261.19 GB

     Initial potential from superposition of free atoms

     starting charge 1524.87645, renormalised to 1525.00000
     Starting wfc are 1135 randomized atomic wfcs
     Checking if some PAW data can be deallocated... 
       PAW data deallocated on  188 nodes for type:  1
       PAW data deallocated on   99 nodes for type:  2
       PAW data deallocated on   97 nodes for type:  3

     total cpu time spent up to now is       41.9 secs

     Self-consistent Calculation

     iteration #  1     ecut=    70.00 Ry     beta= 0.40
     Davidson diagonalization with overlap
     ethr =  1.00E-02,  avg # of iterations =  4.0

     total cpu time spent up to now is      259.8 secs

     total energy              =  -38847.71545545 Ry
     Harris-Foulkes estimate   =  -38998.37684815 Ry
     estimated scf accuracy    <     244.67381816 Ry

     iteration #  2     ecut=    70.00 Ry     beta= 0.40
     Davidson diagonalization with overlap
     ethr =  1.00E-02,  avg # of iterations =  3.0

     total cpu time spent up to now is      493.5 secs

     total energy              =  -38889.26408018 Ry
     Harris-Foulkes estimate   =  -39163.67208196 Ry
     estimated scf accuracy    <    1335.18789806 Ry

     iteration #  3     ecut=    70.00 Ry     beta= 0.40
     Davidson diagonalization with overlap
     ethr =  1.00E-02,  avg # of iterations =  3.0

     total cpu time spent up to now is      666.5 secs

     total energy              =  -38951.50691248 Ry
     Harris-Foulkes estimate   =  -39050.15430891 Ry
     estimated scf accuracy    <     758.90413538 Ry

     iteration #  4     ecut=    70.00 Ry     beta= 0.40
     Davidson diagonalization with overlap
     ethr =  1.00E-02,  avg # of iterations =  3.0

     total cpu time spent up to now is      803.4 secs

     total energy              =  -38985.45709606 Ry
     Harris-Foulkes estimate   =  -39007.68792747 Ry
     estimated scf accuracy    <     170.55337234 Ry

     iteration #  5     ecut=    70.00 Ry     beta= 0.40
     Davidson diagonalization with overlap
     ethr =  1.00E-02,  avg # of iterations =  1.2

     total cpu time spent up to now is      915.0 secs

     total energy              =  -38988.94007435 Ry
     Harris-Foulkes estimate   =  -38996.87767599 Ry
     estimated scf accuracy    <      94.66712863 Ry

     iteration #  6     ecut=    70.00 Ry     beta= 0.40
     Davidson diagonalization with overlap
     ethr =  6.21E-03,  avg # of iterations =  1.0

     total cpu time spent up to now is     1018.6 secs

     total energy              =  -38988.74521710 Ry
     Harris-Foulkes estimate   =  -38992.55053802 Ry
     estimated scf accuracy    <      47.55909507 Ry

     iteration #  7     ecut=    70.00 Ry     beta= 0.40
     Davidson diagonalization with overlap
     ethr =  3.12E-03,  avg # of iterations =  1.0

     total cpu time spent up to now is     1122.3 secs

     total energy              =  -38988.02816331 Ry
     Harris-Foulkes estimate   =  -38989.96598160 Ry
     estimated scf accuracy    <      30.46452032 Ry

     iteration #  8     ecut=    70.00 Ry     beta= 0.40
     Davidson diagonalization with overlap
     ethr =  2.00E-03,  avg # of iterations =  1.0

     total cpu time spent up to now is     1226.2 secs

     total energy              =  -38986.16027068 Ry
     Harris-Foulkes estimate   =  -38988.76390388 Ry
     estimated scf accuracy    <      25.55140856 Ry

     iteration #  9     ecut=    70.00 Ry     beta= 0.40
     Davidson diagonalization with overlap
     ethr =  1.68E-03,  avg # of iterations =  1.0

     total cpu time spent up to now is     1329.7 secs

     total energy              =  -38985.74400641 Ry
     Harris-Foulkes estimate   =  -38987.00711950 Ry
     estimated scf accuracy    <      10.07617103 Ry

     iteration # 10     ecut=    70.00 Ry     beta= 0.40
     Davidson diagonalization with overlap
     ethr =  6.61E-04,  avg # of iterations =  1.4

     total cpu time spent up to now is     1462.1 secs

     total energy              =  -38985.03719547 Ry
     Harris-Foulkes estimate   =  -38986.25675114 Ry
     estimated scf accuracy    <       4.16054505 Ry

     iteration # 11     ecut=    70.00 Ry     beta= 0.40
     Davidson diagonalization with overlap
     ethr =  2.73E-04,  avg # of iterations =  5.0

     total cpu time spent up to now is     1639.3 secs

     total energy              =  -38984.78119576 Ry
     Harris-Foulkes estimate   =  -38986.77000027 Ry
     estimated scf accuracy    <      19.58404778 Ry

     iteration # 12     ecut=    70.00 Ry     beta= 0.40
     Davidson diagonalization with overlap
     ethr =  2.73E-04,  avg # of iterations =  2.5

     total cpu time spent up to now is     1767.4 secs

     total energy              =  -38985.48596857 Ry
     Harris-Foulkes estimate   =  -38986.19990505 Ry
     estimated scf accuracy    <       5.30510329 Ry

     iteration # 13     ecut=    70.00 Ry     beta= 0.40
     Davidson diagonalization with overlap
     ethr =  2.73E-04,  avg # of iterations =  2.2

     total cpu time spent up to now is     1890.6 secs

     total energy              =  -38985.65355696 Ry
     Harris-Foulkes estimate   =  -38986.16406752 Ry
     estimated scf accuracy    <       6.72654555 Ry

     iteration # 14     ecut=    70.00 Ry     beta= 0.40
     Davidson diagonalization with overlap
     ethr =  2.73E-04,  avg # of iterations =  1.0

     total cpu time spent up to now is     1994.2 secs

     total energy              =  -38985.86345474 Ry
     Harris-Foulkes estimate   =  -38985.94229085 Ry
     estimated scf accuracy    <       0.77737515 Ry

     iteration # 15     ecut=    70.00 Ry     beta= 0.40
     Davidson diagonalization with overlap
     ethr =  5.10E-05,  avg # of iterations =  2.2

     total cpu time spent up to now is     2116.9 secs

     total energy              =  -38985.89223636 Ry
     Harris-Foulkes estimate   =  -38985.91916395 Ry
     estimated scf accuracy    <       0.28374026 Ry

     iteration # 16     ecut=    70.00 Ry     beta= 0.40
     Davidson diagonalization with overlap
     ethr =  1.86E-05,  avg # of iterations =  4.8

     total cpu time spent up to now is     2263.0 secs

     total energy              =  -38985.89130463 Ry
     Harris-Foulkes estimate   =  -38985.92059445 Ry
     estimated scf accuracy    <       0.34769734 Ry

     iteration # 17     ecut=    70.00 Ry     beta= 0.40
     Davidson diagonalization with overlap
     ethr =  1.86E-05,  avg # of iterations =  2.0

     total cpu time spent up to now is     2387.3 secs

     total energy              =  -38985.89685571 Ry
     Harris-Foulkes estimate   =  -38985.91642455 Ry
     estimated scf accuracy    <       0.23514907 Ry

     iteration # 18     ecut=    70.00 Ry     beta= 0.40
     Davidson diagonalization with overlap
     ethr =  1.54E-05,  avg # of iterations =  1.0

     total cpu time spent up to now is     2491.2 secs

     total energy              =  -38985.90029503 Ry
     Harris-Foulkes estimate   =  -38985.91257563 Ry
     estimated scf accuracy    <       0.13651400 Ry

     iteration # 19     ecut=    70.00 Ry     beta= 0.40
     Davidson diagonalization with overlap
     ethr =  8.95E-06,  avg # of iterations =  1.0

     total cpu time spent up to now is     2594.6 secs

     total energy              =  -38985.90224026 Ry
     Harris-Foulkes estimate   =  -38985.91017865 Ry
     estimated scf accuracy    <       0.10423882 Ry

     iteration # 20     ecut=    70.00 Ry     beta= 0.40
     Davidson diagonalization with overlap
     ethr =  6.84E-06,  avg # of iterations =  1.0

     total cpu time spent up to now is     2697.8 secs

     total energy              =  -38985.90483912 Ry
     Harris-Foulkes estimate   =  -38985.90769674 Ry
     estimated scf accuracy    <       0.02052324 Ry

     iteration # 21     ecut=    70.00 Ry     beta= 0.40
     Davidson diagonalization with overlap
     ethr =  1.35E-06,  avg # of iterations =  3.9

     total cpu time spent up to now is     2832.8 secs

     total energy              =  -38985.90310252 Ry
     Harris-Foulkes estimate   =  -38985.90960604 Ry
     estimated scf accuracy    <       0.05660082 Ry

     iteration # 22     ecut=    70.00 Ry     beta= 0.40
     Davidson diagonalization with overlap
     ethr =  1.35E-06,  avg # of iterations =  3.0

     total cpu time spent up to now is     2957.4 secs

     total energy              =  -38985.90460072 Ry
     Harris-Foulkes estimate   =  -38985.90841169 Ry
     estimated scf accuracy    <       0.04340662 Ry

     iteration # 23     ecut=    70.00 Ry     beta= 0.40
     Davidson diagonalization with overlap
     ethr =  1.35E-06,  avg # of iterations =  2.0

     total cpu time spent up to now is     3070.9 secs

     total energy              =  -38985.90504941 Ry
     Harris-Foulkes estimate   =  -38985.90766904 Ry
     estimated scf accuracy    <       0.02440519 Ry

     iteration # 24     ecut=    70.00 Ry     beta= 0.40
     Davidson diagonalization with overlap
     ethr =  1.35E-06,  avg # of iterations =  2.0

     total cpu time spent up to now is     3184.7 secs

     total energy              =  -38985.90434190 Ry
     Harris-Foulkes estimate   =  -38985.90873233 Ry
     estimated scf accuracy    <       0.05872217 Ry

     iteration # 25     ecut=    70.00 Ry     beta= 0.40
     Davidson diagonalization with overlap
     ethr =  1.35E-06,  avg # of iterations =  1.8

     total cpu time spent up to now is     3298.8 secs

     total energy              =  -38985.90518900 Ry
     Harris-Foulkes estimate   =  -38985.90813582 Ry
     estimated scf accuracy    <       0.04144802 Ry

     iteration # 26     ecut=    70.00 Ry     beta= 0.40
     Davidson diagonalization with overlap
     ethr =  1.35E-06,  avg # of iterations =  1.0

     total cpu time spent up to now is     3401.9 secs

     total energy              =  -38985.90650253 Ry
     Harris-Foulkes estimate   =  -38985.90688463 Ry
     estimated scf accuracy    <       0.00288563 Ry

     iteration # 27     ecut=    70.00 Ry     beta= 0.40
     Davidson diagonalization with overlap
     ethr =  1.89E-07,  avg # of iterations =  1.0

     total cpu time spent up to now is     3505.1 secs

     total energy              =  -38985.90643581 Ry
     Harris-Foulkes estimate   =  -38985.90698577 Ry
     estimated scf accuracy    <       0.00641472 Ry

     iteration # 28     ecut=    70.00 Ry     beta= 0.40
     Davidson diagonalization with overlap
     ethr =  1.89E-07,  avg # of iterations =  1.0

     total cpu time spent up to now is     3608.6 secs

     total energy              =  -38985.90660180 Ry
     Harris-Foulkes estimate   =  -38985.90686171 Ry
     estimated scf accuracy    <       0.00300338 Ry

     iteration # 29     ecut=    70.00 Ry     beta= 0.40
     Davidson diagonalization with overlap
     ethr =  1.89E-07,  avg # of iterations =  1.0

     total cpu time spent up to now is     3712.4 secs

     total energy              =  -38985.90664821 Ry
     Harris-Foulkes estimate   =  -38985.90681871 Ry
     estimated scf accuracy    <       0.00237477 Ry

     iteration # 30     ecut=    70.00 Ry     beta= 0.40
     Davidson diagonalization with overlap
     ethr =  1.56E-07,  avg # of iterations =  1.0

     total cpu time spent up to now is     3815.9 secs

     total energy              =  -38985.90670920 Ry
     Harris-Foulkes estimate   =  -38985.90677684 Ry
     estimated scf accuracy    <       0.00069739 Ry

     iteration # 31     ecut=    70.00 Ry     beta= 0.40
     Davidson diagonalization with overlap
     ethr =  4.57E-08,  avg # of iterations =  1.0

     total cpu time spent up to now is     3919.3 secs

     total energy              =  -38985.90669141 Ry
     Harris-Foulkes estimate   =  -38985.90680991 Ry
     estimated scf accuracy    <       0.00141776 Ry

     iteration # 32     ecut=    70.00 Ry     beta= 0.40
     Davidson diagonalization with overlap
     ethr =  4.57E-08,  avg # of iterations =  1.0

     total cpu time spent up to now is     4022.3 secs

     total energy              =  -38985.90673662 Ry
     Harris-Foulkes estimate   =  -38985.90676991 Ry
     estimated scf accuracy    <       0.00027554 Ry

     iteration # 33     ecut=    70.00 Ry     beta= 0.40
     Davidson diagonalization with overlap
     ethr =  1.81E-08,  avg # of iterations =  1.0

     total cpu time spent up to now is     4125.8 secs

     total energy              =  -38985.90674252 Ry
     Harris-Foulkes estimate   =  -38985.90676675 Ry
     estimated scf accuracy    <       0.00022570 Ry

     iteration # 34     ecut=    70.00 Ry     beta= 0.40
     Davidson diagonalization with overlap
     ethr =  1.48E-08,  avg # of iterations =  1.0

     total cpu time spent up to now is     4229.2 secs

     total energy              =  -38985.90673150 Ry
     Harris-Foulkes estimate   =  -38985.90677986 Ry
     estimated scf accuracy    <       0.00062972 Ry

     iteration # 35     ecut=    70.00 Ry     beta= 0.40
     Davidson diagonalization with overlap
     ethr =  1.48E-08,  avg # of iterations =  1.0

     total cpu time spent up to now is     4332.3 secs

     total energy              =  -38985.90672881 Ry
     Harris-Foulkes estimate   =  -38985.90678193 Ry
     estimated scf accuracy    <       0.00062940 Ry

     iteration # 36     ecut=    70.00 Ry     beta= 0.40
     Davidson diagonalization with overlap
     ethr =  1.48E-08,  avg # of iterations =  1.0

     total cpu time spent up to now is     4435.7 secs

     total energy              =  -38985.90674794 Ry
     Harris-Foulkes estimate   =  -38985.90676838 Ry
     estimated scf accuracy    <       0.00023220 Ry

     iteration # 37     ecut=    70.00 Ry     beta= 0.40
     Davidson diagonalization with overlap
     ethr =  1.48E-08,  avg # of iterations =  1.0

     total cpu time spent up to now is     4538.7 secs

     total energy              =  -38985.90675000 Ry
     Harris-Foulkes estimate   =  -38985.90676750 Ry
     estimated scf accuracy    <       0.00020231 Ry

     iteration # 38     ecut=    70.00 Ry     beta= 0.40
     Davidson diagonalization with overlap
     ethr =  1.33E-08,  avg # of iterations =  1.0

     total cpu time spent up to now is     4641.8 secs

     total energy              =  -38985.90675436 Ry
     Harris-Foulkes estimate   =  -38985.90676375 Ry
     estimated scf accuracy    <       0.00010446 Ry

     iteration # 39     ecut=    70.00 Ry     beta= 0.40
     Davidson diagonalization with overlap
     ethr =  6.85E-09,  avg # of iterations =  1.0

     total cpu time spent up to now is     4745.3 secs

     total energy              =  -38985.90675506 Ry
     Harris-Foulkes estimate   =  -38985.90676327 Ry
     estimated scf accuracy    <       0.00011345 Ry

     iteration # 40     ecut=    70.00 Ry     beta= 0.40
     Davidson diagonalization with overlap
     ethr =  6.85E-09,  avg # of iterations =  1.0

     total cpu time spent up to now is     4848.7 secs

     total energy              =  -38985.90675726 Ry
     Harris-Foulkes estimate   =  -38985.90676232 Ry
     estimated scf accuracy    <       0.00006711 Ry

     iteration # 41     ecut=    70.00 Ry     beta= 0.40
     Davidson diagonalization with overlap
     ethr =  4.40E-09,  avg # of iterations =  1.0

     total cpu time spent up to now is     4951.7 secs

     total energy              =  -38985.90675823 Ry
     Harris-Foulkes estimate   =  -38985.90676199 Ry
     estimated scf accuracy    <       0.00004465 Ry

     iteration # 42     ecut=    70.00 Ry     beta= 0.40
     Davidson diagonalization with overlap
     ethr =  2.93E-09,  avg # of iterations =  1.0

     total cpu time spent up to now is     5054.8 secs

     total energy              =  -38985.90675966 Ry
     Harris-Foulkes estimate   =  -38985.90676084 Ry
     estimated scf accuracy    <       0.00001129 Ry

     iteration # 43     ecut=    70.00 Ry     beta= 0.40
     Davidson diagonalization with overlap
     ethr =  7.41E-10,  avg # of iterations =  1.0

     total cpu time spent up to now is     5157.7 secs

     total energy              =  -38985.90676006 Ry
     Harris-Foulkes estimate   =  -38985.90676079 Ry
     estimated scf accuracy    <       0.00000860 Ry

     iteration # 44     ecut=    70.00 Ry     beta= 0.40
     Davidson diagonalization with overlap
     ethr =  5.64E-10,  avg # of iterations =  1.0

     total cpu time spent up to now is     5260.7 secs

     total energy              =  -38985.90676008 Ry
     Harris-Foulkes estimate   =  -38985.90676097 Ry
     estimated scf accuracy    <       0.00000997 Ry

     iteration # 45     ecut=    70.00 Ry     beta= 0.40
     Davidson diagonalization with overlap
     ethr =  5.64E-10,  avg # of iterations =  1.0

     total cpu time spent up to now is     5364.0 secs

     total energy              =  -38985.90676008 Ry
     Harris-Foulkes estimate   =  -38985.90676093 Ry
     estimated scf accuracy    <       0.00000822 Ry

     iteration # 46     ecut=    70.00 Ry     beta= 0.40
     Davidson diagonalization with overlap
     ethr =  5.39E-10,  avg # of iterations =  1.0

     total cpu time spent up to now is     5467.3 secs

     total energy              =  -38985.90675994 Ry
     Harris-Foulkes estimate   =  -38985.90676129 Ry
     estimated scf accuracy    <       0.00001878 Ry

     iteration # 47     ecut=    70.00 Ry     beta= 0.40
     Davidson diagonalization with overlap
     ethr =  5.39E-10,  avg # of iterations =  1.0

     total cpu time spent up to now is     5570.1 secs

     total energy              =  -38985.90676037 Ry
     Harris-Foulkes estimate   =  -38985.90676087 Ry
     estimated scf accuracy    <       0.00000534 Ry

     iteration # 48     ecut=    70.00 Ry     beta= 0.40
     Davidson diagonalization with overlap
     ethr =  3.50E-10,  avg # of iterations =  1.0

     total cpu time spent up to now is     5673.1 secs

     total energy              =  -38985.90676044 Ry
     Harris-Foulkes estimate   =  -38985.90676084 Ry
     estimated scf accuracy    <       0.00000465 Ry

     iteration # 49     ecut=    70.00 Ry     beta= 0.40
     Davidson diagonalization with overlap
     ethr =  3.05E-10,  avg # of iterations =  1.0

     total cpu time spent up to now is     5776.1 secs

     total energy              =  -38985.90676040 Ry
     Harris-Foulkes estimate   =  -38985.90676092 Ry
     estimated scf accuracy    <       0.00000742 Ry

     iteration # 50     ecut=    70.00 Ry     beta= 0.40
     Davidson diagonalization with overlap
     ethr =  3.05E-10,  avg # of iterations =  1.0

     total cpu time spent up to now is     5879.2 secs

     total energy              =  -38985.90676051 Ry
     Harris-Foulkes estimate   =  -38985.90676088 Ry
     estimated scf accuracy    <       0.00000517 Ry

     iteration # 51     ecut=    70.00 Ry     beta= 0.40
     Davidson diagonalization with overlap
     ethr =  3.05E-10,  avg # of iterations =  1.0

     total cpu time spent up to now is     5982.5 secs

     total energy              =  -38985.90676063 Ry
     Harris-Foulkes estimate   =  -38985.90676078 Ry
     estimated scf accuracy    <       0.00000149 Ry

     iteration # 52     ecut=    70.00 Ry     beta= 0.40
     Davidson diagonalization with overlap
     ethr =  9.76E-11,  avg # of iterations =  1.0

     total cpu time spent up to now is     6085.8 secs

     End of self-consistent calculation

          k = 0.1398 0.2795 0.2795 (116137 PWs)   bands (ev):

   -99.1732 -99.0265 -99.0040 -98.9680 -98.9670 -98.8840 -98.8799 -98.8508
   -98.8278 -98.8264 -98.8087 -98.7801 -98.7619 -98.7297 -98.7255 -98.7218
   -98.7152 -98.6852 -98.6290 -98.6179 -98.6062 -98.5906 -98.5841 -98.5632
   -98.5418 -98.5381 -98.5039 -98.5008 -98.4571 -98.4185 -98.4173 -98.4129
   -98.3731 -98.3555 -98.3543 -98.3482 -98.3446 -98.3359 -98.3340 -98.3335
   -98.3168 -98.2776 -98.2371 -98.2353 -98.2345 -98.1195 -98.0955 -98.0841
   -98.0772 -56.8308 -56.6583 -56.6255 -56.6243 -56.5324 -56.4700 -56.4471
   -56.4217 -56.4046 -56.3943 -56.3445 -56.3374 -56.3322 -56.3220 -56.3113
   -56.2868 -56.2774 -56.2656 -56.2539 -56.2496 -56.2447 -56.2378 -56.2324
   -56.2280 -56.2198 -56.2173 -56.2130 -56.1990 -56.1871 -56.1717 -56.1670
   -56.1599 -56.1542 -56.1482 -56.1463 -56.1392 -56.1312 -56.1279 -56.1174
   -56.1126 -56.0930 -56.0866 -56.0828 -56.0749 -56.0710 -56.0695 -56.0597
   -56.0352 -56.0339 -56.0320 -56.0248 -56.0243 -56.0234 -56.0070 -55.9998
   -55.9821 -55.9776 -55.9724 -55.9668 -55.9635 -55.9622 -55.9617 -55.9556
   -55.9519 -55.9451 -55.9413 -55.9333 -55.9264 -55.9263 -55.9140 -55.8949
   -55.8772 -55.8719 -55.8658 -55.8581 -55.8538 -55.8438 -55.8411 -55.8306
   -55.8303 -55.8289 -55.8215 -55.8163 -55.7911 -55.7881 -55.7841 -55.7811
   -55.7696 -55.7625 -55.7593 -55.7534 -55.7526 -55.7503 -55.7421 -55.7404
   -55.7315 -55.7289 -55.7113 -55.7106 -55.7099 -55.7092 -55.7092 -55.7061
   -55.7052 -55.6970 -55.6966 -55.6884 -55.6815 -55.6787 -55.6707 -55.6468
   -55.6388 -55.6370 -55.6347 -55.6293 -55.6266 -55.6259 -55.6249 -55.6231
   -55.6173 -55.6169 -55.6144 -55.6142 -55.6119 -55.6047 -55.6024 -55.6023
   -55.5633 -55.5582 -55.5459 -55.5455 -55.5429 -55.5349 -55.5159 -55.5103
   -55.5094 -55.4901 -55.4679 -55.4613 -55.4579 -55.4383 -55.4347 -55.4286
   -55.3955 -55.3763 -55.3393 -55.3123 -34.3493 -34.1765 -34.1643 -34.1608
   -34.1550 -34.1459 -34.1344 -34.1244 -34.1027 -34.0800 -34.0777 -34.0713
   -34.0595 -34.0551 -34.0544 -34.0289 -34.0078 -34.0039 -34.0009 -33.9981
   -33.9794 -33.9612 -33.9603 -33.9473 -33.9419 -33.9330 -33.9058 -33.8933
   -33.8759 -33.8670 -33.8576 -33.8448 -33.8212 -33.8015 -33.7878 -33.7846
   -33.7639 -33.7293 -33.6946 -33.6905 -33.6752 -33.6709 -33.6662 -33.6173
   -33.5963 -33.5750 -33.4375 -33.3509 -33.3392 -13.6298 -13.4353 -13.3460
   -13.0193 -12.9792 -12.9324 -12.8388 -12.7935 -12.7884 -12.7119 -12.6748
   -12.6704 -12.6348 -12.6080 -12.6005 -12.5359 -12.4988 -12.4863 -12.4804
   -12.4702 -12.4618 -12.4460 -12.4309 -12.4245 -12.4147 -12.4050 -12.3927
   -12.3828 -12.3727 -12.3696 -12.3596 -12.3492 -12.3324 -12.3172 -12.3103
   -12.3063 -12.2967 -12.2902 -12.2809 -12.2784 -12.2704 -12.2635 -12.2619
   -12.2525 -12.2429 -12.2330 -12.2246 -12.2216 -12.2129 -12.2113 -12.2076
   -12.1994 -12.1898 -12.1839 -12.1746 -12.1736 -12.1574 -12.1521 -12.1483
   -12.1438 -12.1330 -12.1281 -12.1224 -12.1166 -12.1129 -12.1016 -12.0967
   -12.0913 -12.0811 -12.0784 -12.0646 -12.0567 -12.0525 -12.0429 -12.0373
   -12.0290 -12.0263 -12.0142 -12.0078 -11.9998 -11.9909 -11.9828 -11.9723
   -11.9684 -11.9576 -11.9562 -11.9465 -11.9431 -11.9330 -11.9235 -11.9118
   -11.9047 -11.8959 -11.8894 -11.8822 -11.8614 -11.8518 -11.8438 -11.8332
   -11.8163 -11.8089 -11.8010 -11.7960 -11.7872 -11.7765 -11.7654 -11.7611
   -11.7557 -11.7535 -11.7477 -11.7246 -11.7200 -11.7100 -11.7020 -11.6891
   -11.6767 -11.6618 -11.6594 -11.6426 -11.6392 -11.6319 -11.6079 -11.5911
   -11.5791 -11.5757 -11.5565 -11.5200 -11.5132 -11.5061 -11.4938 -11.4885
   -11.4503 -11.4398 -11.4363 -11.4104 -11.4034 -11.3620 -11.3474 -11.3448
   -11.3209 -11.2882 -11.2012 -11.1821 -10.9758 -10.7337 -10.6236 -10.4452
     7.3444   7.7549   7.9790   8.1693   8.3603   8.5258   8.6647   8.7799
     8.8973   9.0046   9.0511   9.1748   9.2969   9.4185   9.4442   9.4978
     9.5519   9.6276   9.7078   9.7117   9.7639   9.8036   9.8281   9.8439
     9.8699   9.8965   9.9247   9.9368   9.9565   9.9640   9.9947  10.0167
    10.0304  10.0419  10.0591  10.0613  10.0850  10.0952  10.1071  10.1145
    10.1230  10.1380  10.1502  10.1655  10.1745  10.1949  10.2017  10.2177
    10.2238  10.2319  10.2468  10.2506  10.2662  10.2797  10.2905  10.2984
    10.3093  10.3198  10.3240  10.3362  10.3495  10.3575  10.3670  10.3692
    10.3778  10.3831  10.3980  10.4084  10.4202  10.4284  10.4343  10.4375
    10.4468  10.4590  10.4680  10.4799  10.4926  10.5006  10.5035  10.5106
    10.5247  10.5281  10.5321  10.5433  10.5580  10.5633  10.5671  10.5782
    10.5883  10.5970  10.6034  10.6137  10.6168  10.6216  10.6330  10.6396
    10.6456  10.6531  10.6662  10.6753  10.6814  10.6925  10.6982  10.7013
    10.7081  10.7162  10.7279  10.7330  10.7411  10.7436  10.7548  10.7623
    10.7699  10.7726  10.7841  10.7916  10.8028  10.8058  10.8183  10.8252
    10.8309  10.8388  10.8449  10.8536  10.8650  10.8746  10.8819  10.8875
    10.8907  10.8975  10.9055  10.9167  10.9277  10.9300  10.9391  10.9457
    10.9507  10.9559  10.9666  10.9780  10.9814  10.9942  10.9986  11.0028
    11.0180  11.0210  11.0293  11.0415  11.0474  11.0527  11.0573  11.0688
    11.0758  11.0806  11.0872  11.0942  11.0975  11.1062  11.1118  11.1263
    11.1331  11.1427  11.1531  11.1565  11.1594  11.1732  11.1799  11.1861
    11.1921  11.2088  11.2155  11.2255  11.2274  11.2315  11.2426  11.2528
    11.2627  11.2697  11.2757  11.2837  11.2952  11.3039  11.3144  11.3247
    11.3286  11.3413  11.3496  11.3556  11.3653  11.3752  11.3781  11.3905
    11.3950  11.4067  11.4155  11.4286  11.4366  11.4492  11.4596  11.4641
    11.4742  11.4858  11.4915  11.5000  11.5033  11.5218  11.5292  11.5394
    11.5438  11.5576  11.5633  11.5678  11.5838  11.5955  11.6070  11.6244
    11.6291  11.6389  11.6449  11.6491  11.6589  11.6721  11.6871  11.6960
    11.7028  11.7164  11.7195  11.7294  11.7394  11.7498  11.7583  11.7679
    11.7730  11.7831  11.7968  11.8098  11.8170  11.8224  11.8388  11.8493
    11.8644  11.8747  11.8846  11.8953  11.9028  11.9121  11.9265  11.9357
    11.9526  11.9576  11.9674  11.9878  11.9916  12.0035  12.0238  12.0329
    12.0508  12.0694  12.0811  12.1014  12.1106  12.1246  12.1305  12.1509
    12.1634  12.1703  12.1990  12.2159  12.2220  12.2457  12.2561  12.2770
    12.2921  12.3003  12.3158  12.3406  12.3640  12.3734  12.4019  12.4282
    12.4547  12.4812  12.5016  12.5167  12.5511  12.5779  12.5978  12.6337
    12.6712  12.7080  12.7424  12.7527  12.8099  12.8310  12.8483  12.9312
    12.9338  12.9622  12.9955  13.0252  13.0334  13.0918  13.1124  13.1401
    13.1650  13.1797  13.2046  13.2472  13.2651  13.2894  13.3315  13.3363
    13.3639  13.4039  13.4311  13.4588  13.4893  13.5100  13.5386  13.5687
    13.5891  13.6160  13.6660  13.6837  13.7012  13.7439  13.7491  13.7882
    13.8224  13.8393  13.8591  13.8807  13.9061  13.9359  13.9642  13.9855
    14.0085  14.0432  14.0528  14.0737  14.0903  14.1199  14.1525  14.1660
    14.1819  14.2057  14.2316  14.2497  14.2619  14.2817  14.3023  14.3380
    14.3659  14.3808  14.4038  14.4128  14.4418  14.4716  14.4887  14.5135
    14.5297  14.5598  14.5770  14.6002  14.6266  14.6461  14.6660  14.6790
    14.6999  14.7196  14.7555  14.7658  14.7934  14.8166  14.8338  14.8520
    14.8781  14.8928  14.9187  14.9667  14.9818  14.9975  15.0218  15.0470
    15.0684  15.0831  15.1273  15.1415  15.1726  15.1896  15.2131  15.2387
    15.2771  15.2926  15.3178  15.3194  15.3711  15.3875  15.4082  15.4297
    15.4602  15.4703  15.5127  15.5237  15.5485  15.5793  15.6146  15.6403
    15.6674  15.6872  15.7027  15.7237  15.7589  15.7994  15.8204  15.8645
    15.8992  15.9109  15.9374  15.9840  15.9951  16.0152  16.0704  16.0884
    16.1215  16.1415  16.1753  16.1912  16.2245  16.2470  16.2841  16.3205
    16.3393  16.3682  16.4081  16.4389  16.4842  16.5035  16.5218  16.5319
    16.5653  16.5856  16.6094  16.6417  16.6732  16.6890  16.7266  16.7506
    16.7702  16.8157  16.8494  16.8855  16.8972  16.9310  16.9539  16.9869
    17.0067  17.0343  17.0500  17.0711  17.0811  17.0996  17.1588  17.1737
    17.2035  17.2375  17.2569  17.2744  17.3139  17.3210  17.3480  17.3710
    17.4183  17.4400  17.4666  17.4870  17.5104  17.5402  17.5610  17.5829
    17.5955  17.6248  17.6700  17.7035  17.7267  17.7351  17.7557  17.7765
    17.8016  17.8285  17.8693  17.8948  17.9058  17.9307  17.9548  17.9999
    18.0163  18.0501  18.0588  18.0733  18.0995  18.1295  18.1503  18.1746
    18.1882  18.2126  18.2496  18.2818  18.3137  18.3408  18.3518  18.3855
    18.4132  18.4398  18.4646  18.5052  18.5185  18.5386  18.5636  18.6025
    18.6226  18.6665  18.6966  18.7215  18.7366  18.7676  18.7974  18.8384
    18.8716  18.8906  18.9457  18.9537  18.9824  19.0472  19.0546  19.1019
    19.1365  19.1731  19.2124  19.2278  19.2699  19.2959  19.3313  19.3658
    19.4055  19.4213  19.4719  19.4929  19.5250  19.5511  19.5853  19.6192
    19.6359  19.7090  19.7330  19.8003  19.8376  19.8704  19.9194  19.9432
    20.0005  20.0386  20.0468  20.1123  20.1433  20.2364  20.2541  20.2979
    20.3283  20.3819  20.3977  20.4480  20.4880  20.5770  20.6261  20.6460
    20.7029  20.7145  20.7997  20.8403  20.8856  20.9636  20.9728  21.0469
    21.0826  21.1207  21.1510  21.2025  21.2191  21.2735  21.3196  21.3718
    21.4071  21.4427  21.5075  21.5381  21.6169  21.6413  21.6910  21.7539
    21.7727  21.8668  21.9100  21.9495  22.0184  22.0507  22.0854  22.1365
    22.1689  22.2229  22.2499  22.3085  22.3750  22.4052  22.4603  22.4891
    22.4996  22.5733  22.6277  22.6881  22.7364  22.7939  22.8241  22.8865
    22.9298  22.9650  23.0235  23.0596  23.1073  23.1518  23.1751  23.2236
    23.2633  23.3322  23.3556  23.4023  23.4507  23.5250  23.5352  23.5866
    23.6320  23.6866  23.7202  23.7336  23.7864  23.8104  23.8632  23.9130
    23.9367  23.9730  24.0450  24.1161  24.1532  24.1708  24.2077  24.2316
    24.2713  24.2827  24.3261  24.3930  24.4414  24.4553  24.5018  24.5716
    24.5944  24.6212  24.6714  24.6893  24.7099  24.7754  24.8270  24.8790
    24.9003  24.9379  24.9668  25.0095  25.0651  25.0992  25.1512  25.1935
    25.2239  25.2483  25.3243  25.3686  25.4121  25.4357  25.4899  25.5091
    25.5721  25.6104  25.6401  25.6727  25.6978  25.7192

     occupation numbers 
     1.0000   1.0000   1.0000   1.0000   1.0000   1.0000   1.0000   1.0000
     1.0000   1.0000   1.0000   1.0000   1.0000   1.0000   1.0000   1.0000
     1.0000   1.0000   1.0000   1.0000   1.0000   1.0000   1.0000   1.0000
     1.0000   1.0000   1.0000   1.0000   1.0000   1.0000   1.0000   1.0000
     1.0000   1.0000   1.0000   1.0000   1.0000   1.0000   1.0000   1.0000
     1.0000   1.0000   1.0000   1.0000   1.0000   1.0000   1.0000   1.0000
     1.0000   1.0000   1.0000   1.0000   1.0000   1.0000   1.0000   1.0000
     1.0000   1.0000   1.0000   1.0000   1.0000   1.0000   1.0000   1.0000
     1.0000   1.0000   1.0000   1.0000   1.0000   1.0000   1.0000   1.0000
     1.0000   1.0000   1.0000   1.0000   1.0000   1.0000   1.0000   1.0000
     1.0000   1.0000   1.0000   1.0000   1.0000   1.0000   1.0000   1.0000
     1.0000   1.0000   1.0000   1.0000   1.0000   1.0000   1.0000   1.0000
     1.0000   1.0000   1.0000   1.0000   1.0000   1.0000   1.0000   1.0000
     1.0000   1.0000   1.0000   1.0000   1.0000   1.0000   1.0000   1.0000
     1.0000   1.0000   1.0000   1.0000   1.0000   1.0000   1.0000   1.0000
     1.0000   1.0000   1.0000   1.0000   1.0000   1.0000   1.0000   1.0000
     1.0000   1.0000   1.0000   1.0000   1.0000   1.0000   1.0000   1.0000
     1.0000   1.0000   1.0000   1.0000   1.0000   1.0000   1.0000   1.0000
     1.0000   1.0000   1.0000   1.0000   1.0000   1.0000   1.0000   1.0000
     1.0000   1.0000   1.0000   1.0000   1.0000   1.0000   1.0000   1.0000
     1.0000   1.0000   1.0000   1.0000   1.0000   1.0000   1.0000   1.0000
     1.0000   1.0000   1.0000   1.0000   1.0000   1.0000   1.0000   1.0000
     1.0000   1.0000   1.0000   1.0000   1.0000   1.0000   1.0000   1.0000
     1.0000   1.0000   1.0000   1.0000   1.0000   1.0000   1.0000   1.0000
     1.0000   1.0000   1.0000   1.0000   1.0000   1.0000   1.0000   1.0000
     1.0000   1.0000   1.0000   1.0000   1.0000   1.0000   1.0000   1.0000
     1.0000   1.0000   1.0000   1.0000   1.0000   1.0000   1.0000   1.0000
     1.0000   1.0000   1.0000   1.0000   1.0000   1.0000   1.0000   1.0000
     1.0000   1.0000   1.0000   1.0000   1.0000   1.0000   1.0000   1.0000
     1.0000   1.0000   1.0000   1.0000   1.0000   1.0000   1.0000   1.0000
     1.0000   1.0000   1.0000   1.0000   1.0000   1.0000   1.0000   1.0000
     1.0000   1.0000   1.0000   1.0000   1.0000   1.0000   1.0000   1.0000
     1.0000   1.0000   1.0000   1.0000   1.0000   1.0000   1.0000   1.0000
     1.0000   1.0000   1.0000   1.0000   1.0000   1.0000   1.0000   1.0000
     1.0000   1.0000   1.0000   1.0000   1.0000   1.0000   1.0000   1.0000
     1.0000   1.0000   1.0000   1.0000   1.0000   1.0000   1.0000   1.0000
     1.0000   1.0000   1.0000   1.0000   1.0000   1.0000   1.0000   1.0000
     1.0000   1.0000   1.0000   1.0000   1.0000   1.0000   1.0000   1.0000
     1.0000   1.0000   1.0000   1.0000   1.0000   1.0000   1.0000   1.0000
     1.0000   1.0000   1.0000   1.0000   1.0000   1.0000   1.0000   1.0000
     1.0000   1.0000   1.0000   1.0000   1.0000   1.0000   1.0000   1.0000
     1.0000   1.0000   1.0000   1.0000   1.0000   1.0000   1.0000   1.0000
     1.0000   1.0000   1.0000   1.0000   1.0000   1.0000   1.0000   1.0000
     1.0000   1.0000   1.0000   1.0000   1.0000   1.0000   1.0000   1.0000
     1.0000   1.0000   1.0000   1.0000   1.0000   1.0000   1.0000   1.0000
     1.0000   1.0000   1.0000   1.0000   1.0000   1.0000   1.0000   1.0000
     1.0000   1.0000   1.0000   1.0000   1.0000   1.0000   1.0000   1.0000
     1.0000   1.0000   1.0000   1.0000   1.0000   1.0000   1.0000   1.0000
     1.0000   1.0000   1.0000   1.0000   1.0000   1.0000   1.0000   1.0000
     1.0000   1.0000   1.0000   1.0000   1.0000   1.0000   1.0000   1.0000
     1.0000   1.0000   1.0000   1.0000   1.0000   1.0000   1.0000   1.0000
     1.0000   1.0000   1.0000   1.0000   1.0000   1.0000   1.0000   1.0000
     1.0000   1.0000   1.0000   1.0000   1.0000   1.0000   1.0000   1.0000
     1.0000   1.0000   1.0000   1.0000   1.0000   1.0000   1.0000   1.0000
     1.0000   1.0000   1.0000   1.0000   1.0000   1.0000   1.0000   1.0000
     1.0000   1.0000   1.0000   1.0000   1.0000   1.0000   1.0000   1.0000
     1.0000   1.0000   1.0000   1.0000   1.0000   1.0000   1.0000   1.0000
     1.0000   1.0000   1.0000   1.0000   1.0000   1.0000   1.0000   1.0000
     1.0000   1.0000   1.0000   1.0000   1.0000   1.0000   1.0000   1.0000
     1.0000   1.0000   1.0000   1.0000   1.0000   1.0000   1.0000   1.0000
     1.0000   1.0000   1.0000   1.0000   1.0000   1.0000   1.0000   1.0000
     1.0000   1.0000   1.0000   1.0000   1.0000   1.0000   1.0000   1.0000
     1.0000   1.0000   1.0000   1.0000   1.0000   1.0000   1.0000   1.0000
     1.0000   1.0000   1.0000   1.0000   1.0000   1.0000   1.0000   1.0000
     1.0000   1.0000   1.0000   1.0000   1.0000   1.0000   1.0000   1.0000
     1.0000   1.0000   1.0000   1.0000   1.0000   1.0000   1.0000   1.0000
     1.0000   1.0000   1.0000   1.0000   1.0000   1.0000   1.0000   1.0000
     1.0000   1.0000   1.0000   1.0000   1.0000   1.0000   1.0000   1.0000
     1.0000   1.0000   1.0000   1.0000   1.0000   1.0000   1.0000   1.0000
     1.0000   1.0000   1.0000   1.0000   1.0000   1.0000   1.0000   1.0000
     1.0000   1.0000   1.0000   1.0000   1.0000   1.0000   1.0000   1.0000
     1.0000   1.0000   1.0000   1.0000   1.0000   1.0000   1.0000   1.0000
     1.0000   1.0000   1.0000   1.0000   1.0000   1.0000   1.0000   1.0000
     1.0000   1.0000   1.0000   1.0000   1.0000   1.0000   1.0000   1.0000
     1.0000   1.0000   1.0000   1.0000   1.0000   1.0000   1.0000   1.0000
     1.0000   1.0000   1.0000   1.0000   1.0000   1.0000   1.0000   1.0000
     1.0000   1.0000   1.0000   1.0000   1.0000   1.0000   1.0000   1.0000
     1.0000   1.0000   1.0000   1.0000   1.0000   1.0000   1.0000   1.0000
     1.0000   1.0000   1.0000   1.0000   1.0000   1.0000   1.0000   1.0000
     1.0000   1.0000   1.0000   1.0000   1.0000   1.0000   1.0000   1.0000
     1.0000   1.0000   1.0000   1.0000   1.0000   1.0000   1.0000   1.0000
     1.0000   1.0000   1.0000   1.0000   1.0000   1.0000   1.0000   1.0000
     1.0000   1.0000   1.0000   1.0000   1.0000   1.0000   1.0000   1.0000
     1.0000   1.0000   1.0000   1.0000   1.0000   1.0000   1.0000   1.0000
     1.0000   1.0000   1.0000   1.0000   1.0000   1.0000   1.0000   1.0000
     1.0000   1.0000   1.0000   1.0000   1.0000   1.0000   1.0000   1.0000
     1.0000   1.0000   1.0000   1.0000   1.0000   1.0000   1.0000   1.0000
     1.0000   1.0000   1.0000   1.0000   1.0000   1.0000   1.0000   1.0000
     1.0000   1.0000   1.0000   1.0000   1.0000   1.0000   1.0000   1.0000
     1.0000   1.0000   1.0000   0.9999   0.9999   0.9999   0.9999   0.9999
     0.9998   0.9998   0.9997   0.9997   0.9996   0.9994   0.9993   0.9991
     0.9989   0.9985   0.9984   0.9980   0.9977   0.9970   0.9959   0.9954
     0.9946   0.9933   0.9915   0.9900   0.9889   0.9867   0.9839   0.9778
     0.9715   0.9675   0.9602   0.9569   0.9444   0.9282   0.9170   0.8979
     0.8834   0.8519   0.8308   0.7987   0.7569   0.7224   0.6842   0.6578
     0.6135   0.5698   0.4877   0.4642   0.4020   0.3520   0.3169   0.2818
     0.2358   0.2125   0.1753   0.1203   0.1064   0.0935   0.0762   0.0614
     0.0510   0.0448   0.0303   0.0267   0.0202   0.0173   0.0140   0.0111
     0.0078   0.0068   0.0054   0.0053   0.0033   0.0029   0.0024   0.0019
     0.0015   0.0013   0.0009   0.0008   0.0007   0.0005   0.0004   0.0003
     0.0002   0.0002   0.0002   0.0001   0.0001   0.0001   0.0001   0.0000
     0.0000   0.0000   0.0000   0.0000   0.0000   0.0000   0.0000   0.0000
     0.0000   0.0000   0.0000   0.0000   0.0000   0.0000   0.0000   0.0000
     0.0000   0.0000   0.0000   0.0000   0.0000   0.0000   0.0000   0.0000
     0.0000   0.0000   0.0000   0.0000   0.0000   0.0000   0.0000   0.0000
     0.0000   0.0000   0.0000   0.0000   0.0000   0.0000   0.0000   0.0000
     0.0000   0.0000   0.0000   0.0000   0.0000   0.0000   0.0000   0.0000
     0.0000   0.0000   0.0000   0.0000   0.0000   0.0000   0.0000   0.0000
     0.0000   0.0000   0.0000   0.0000   0.0000   0.0000   0.0000   0.0000
     0.0000   0.0000   0.0000   0.0000   0.0000   0.0000   0.0000   0.0000
     0.0000   0.0000   0.0000   0.0000   0.0000   0.0000   0.0000   0.0000
     0.0000   0.0000   0.0000   0.0000   0.0000   0.0000   0.0000   0.0000
     0.0000   0.0000   0.0000   0.0000   0.0000   0.0000   0.0000   0.0000
     0.0000   0.0000   0.0000   0.0000   0.0000   0.0000   0.0000   0.0000
     0.0000   0.0000   0.0000   0.0000   0.0000   0.0000   0.0000   0.0000
     0.0000   0.0000   0.0000   0.0000   0.0000   0.0000   0.0000   0.0000
     0.0000   0.0000   0.0000   0.0000   0.0000   0.0000   0.0000   0.0000
     0.0000   0.0000   0.0000   0.0000   0.0000   0.0000   0.0000   0.0000
     0.0000   0.0000   0.0000   0.0000   0.0000   0.0000   0.0000   0.0000
     0.0000   0.0000   0.0000   0.0000   0.0000   0.0000   0.0000   0.0000
     0.0000   0.0000   0.0000   0.0000   0.0000   0.0000   0.0000   0.0000
     0.0000   0.0000   0.0000   0.0000   0.0000   0.0000   0.0000   0.0000
     0.0000   0.0000   0.0000   0.0000   0.0000   0.0000   0.0000   0.0000
     0.0000   0.0000   0.0000   0.0000   0.0000   0.0000   0.0000   0.0000
     0.0000   0.0000   0.0000   0.0000   0.0000   0.0000   0.0000   0.0000
     0.0000   0.0000   0.0000   0.0000   0.0000   0.0000   0.0000   0.0000
     0.0000   0.0000   0.0000   0.0000   0.0000   0.0000   0.0000   0.0000
     0.0000   0.0000   0.0000   0.0000   0.0000   0.0000   0.0000   0.0000
     0.0000   0.0000   0.0000   0.0000   0.0000   0.0000   0.0000   0.0000
     0.0000   0.0000   0.0000   0.0000   0.0000   0.0000   0.0000   0.0000
     0.0000   0.0000   0.0000   0.0000   0.0000   0.0000   0.0000   0.0000
     0.0000   0.0000   0.0000   0.0000   0.0000   0.0000   0.0000   0.0000
     0.0000   0.0000   0.0000   0.0000   0.0000   0.0000   0.0000   0.0000
     0.0000   0.0000   0.0000   0.0000   0.0000   0.0000   0.0000   0.0000
     0.0000   0.0000   0.0000   0.0000   0.0000   0.0000   0.0000   0.0000
     0.0000   0.0000   0.0000   0.0000   0.0000   0.0000

          k = 0.4193 0.2795-0.2795 (116150 PWs)   bands (ev):

   -99.1732 -99.0265 -99.0040 -98.9680 -98.9670 -98.8840 -98.8799 -98.8508
   -98.8278 -98.8264 -98.8087 -98.7801 -98.7619 -98.7297 -98.7255 -98.7218
   -98.7152 -98.6852 -98.6290 -98.6179 -98.6062 -98.5906 -98.5841 -98.5632
   -98.5418 -98.5381 -98.5039 -98.5008 -98.4571 -98.4185 -98.4173 -98.4129
   -98.3731 -98.3555 -98.3543 -98.3482 -98.3446 -98.3359 -98.3340 -98.3335
   -98.3168 -98.2776 -98.2372 -98.2353 -98.2345 -98.1195 -98.0955 -98.0841
   -98.0772 -56.8308 -56.6583 -56.6255 -56.6243 -56.5324 -56.4700 -56.4471
   -56.4217 -56.4046 -56.3943 -56.3445 -56.3374 -56.3322 -56.3220 -56.3113
   -56.2868 -56.2774 -56.2656 -56.2539 -56.2496 -56.2447 -56.2378 -56.2323
   -56.2280 -56.2198 -56.2173 -56.2130 -56.1990 -56.1871 -56.1717 -56.1670
   -56.1599 -56.1542 -56.1482 -56.1463 -56.1392 -56.1311 -56.1279 -56.1174
   -56.1126 -56.0930 -56.0866 -56.0828 -56.0749 -56.0710 -56.0695 -56.0597
   -56.0352 -56.0339 -56.0320 -56.0248 -56.0243 -56.0234 -56.0070 -55.9998
   -55.9821 -55.9776 -55.9724 -55.9668 -55.9635 -55.9622 -55.9617 -55.9556
   -55.9519 -55.9451 -55.9413 -55.9333 -55.9264 -55.9263 -55.9140 -55.8949
   -55.8772 -55.8719 -55.8658 -55.8581 -55.8538 -55.8438 -55.8411 -55.8306
   -55.8303 -55.8289 -55.8216 -55.8163 -55.7911 -55.7881 -55.7841 -55.7811
   -55.7696 -55.7625 -55.7593 -55.7534 -55.7526 -55.7503 -55.7421 -55.7404
   -55.7315 -55.7289 -55.7113 -55.7106 -55.7099 -55.7092 -55.7092 -55.7061
   -55.7052 -55.6970 -55.6966 -55.6884 -55.6815 -55.6787 -55.6708 -55.6468
   -55.6388 -55.6370 -55.6347 -55.6293 -55.6266 -55.6259 -55.6249 -55.6231
   -55.6173 -55.6169 -55.6144 -55.6142 -55.6119 -55.6048 -55.6024 -55.6023
   -55.5633 -55.5582 -55.5459 -55.5455 -55.5429 -55.5349 -55.5159 -55.5103
   -55.5094 -55.4901 -55.4679 -55.4613 -55.4579 -55.4383 -55.4347 -55.4286
   -55.3955 -55.3763 -55.3393 -55.3123 -34.3493 -34.1765 -34.1642 -34.1608
   -34.1550 -34.1459 -34.1344 -34.1245 -34.1027 -34.0802 -34.0775 -34.0712
   -34.0586 -34.0557 -34.0544 -34.0289 -34.0097 -34.0041 -34.0008 -33.9967
   -33.9797 -33.9611 -33.9599 -33.9467 -33.9419 -33.9333 -33.9058 -33.8936
   -33.8755 -33.8669 -33.8577 -33.8450 -33.8212 -33.8032 -33.7878 -33.7846
   -33.7622 -33.7295 -33.6947 -33.6905 -33.6752 -33.6709 -33.6663 -33.6173
   -33.5963 -33.5750 -33.4375 -33.3509 -33.3392 -13.6298 -13.4353 -13.3460
   -13.0193 -12.9794 -12.9321 -12.8388 -12.7936 -12.7883 -12.7117 -12.6745
   -12.6701 -12.6351 -12.6084 -12.6001 -12.5352 -12.4987 -12.4863 -12.4809
   -12.4719 -12.4623 -12.4456 -12.4283 -12.4220 -12.4143 -12.4035 -12.3932
   -12.3820 -12.3753 -12.3715 -12.3608 -12.3488 -12.3343 -12.3164 -12.3109
   -12.3031 -12.2971 -12.2922 -12.2835 -12.2778 -12.2716 -12.2658 -12.2597
   -12.2539 -12.2403 -12.2343 -12.2308 -12.2220 -12.2167 -12.2109 -12.2036
   -12.1971 -12.1883 -12.1836 -12.1756 -12.1736 -12.1611 -12.1510 -12.1484
   -12.1393 -12.1322 -12.1289 -12.1240 -12.1135 -12.1064 -12.1021 -12.0958
   -12.0862 -12.0820 -12.0742 -12.0693 -12.0606 -12.0502 -12.0425 -12.0374
   -12.0297 -12.0198 -12.0148 -12.0079 -12.0009 -11.9871 -11.9836 -11.9794
   -11.9690 -11.9635 -11.9529 -11.9469 -11.9428 -11.9326 -11.9249 -11.9154
   -11.9096 -11.8964 -11.8879 -11.8807 -11.8594 -11.8515 -11.8438 -11.8342
   -11.8193 -11.8087 -11.7997 -11.7932 -11.7857 -11.7770 -11.7663 -11.7626
   -11.7577 -11.7527 -11.7468 -11.7272 -11.7152 -11.7096 -11.7005 -11.6870
   -11.6755 -11.6645 -11.6598 -11.6435 -11.6383 -11.6345 -11.6080 -11.5899
   -11.5792 -11.5746 -11.5508 -11.5263 -11.5131 -11.5055 -11.4942 -11.4888
   -11.4503 -11.4413 -11.4360 -11.4094 -11.4031 -11.3617 -11.3474 -11.3448
   -11.3207 -11.2886 -11.2008 -11.1822 -10.9758 -10.7337 -10.6236 -10.4454
     7.4656   7.6293   7.9333   8.1103   8.4087   8.5288   8.6267   8.7279
     8.9145   9.0688   9.1436   9.2486   9.2877   9.3731   9.4835   9.5294
     9.5430   9.5911   9.6558   9.7159   9.7587   9.8030   9.8435   9.8578
     9.8673   9.9021   9.9224   9.9403   9.9544   9.9659   9.9886  10.0057
    10.0324  10.0411  10.0486  10.0670  10.0905  10.1023  10.1153  10.1259
    10.1332  10.1427  10.1539  10.1661  10.1777  10.1925  10.1980  10.2163
    10.2261  10.2338  10.2442  10.2511  10.2623  10.2767  10.2894  10.3017
    10.3072  10.3137  10.3211  10.3332  10.3440  10.3562  10.3632  10.3666
    10.3824  10.3932  10.4021  10.4065  10.4123  10.4299  10.4397  10.4469
    10.4580  10.4599  10.4684  10.4841  10.4868  10.4964  10.5030  10.5139
    10.5172  10.5281  10.5368  10.5500  10.5576  10.5656  10.5708  10.5778
    10.5890  10.5943  10.5973  10.6066  10.6219  10.6266  10.6311  10.6411
    10.6450  10.6588  10.6609  10.6773  10.6858  10.6896  10.6926  10.7008
    10.7065  10.7165  10.7268  10.7374  10.7422  10.7512  10.7596  10.7667
    10.7709  10.7800  10.7857  10.7882  10.7970  10.8041  10.8138  10.8219
    10.8295  10.8390  10.8479  10.8536  10.8600  10.8704  10.8750  10.8862
    10.8919  10.8980  10.9047  10.9185  10.9244  10.9281  10.9372  10.9396
    10.9468  10.9524  10.9611  10.9820  10.9866  10.9890  10.9999  11.0048
    11.0113  11.0225  11.0263  11.0329  11.0369  11.0498  11.0543  11.0657
    11.0713  11.0802  11.0920  11.1012  11.1048  11.1120  11.1181  11.1304
    11.1362  11.1386  11.1438  11.1543  11.1608  11.1743  11.1803  11.1832
    11.1896  11.1952  11.2046  11.2194  11.2267  11.2407  11.2437  11.2526
    11.2611  11.2666  11.2783  11.2879  11.2987  11.3028  11.3093  11.3176
    11.3268  11.3366  11.3479  11.3539  11.3600  11.3707  11.3777  11.3842
    11.3986  11.4140  11.4196  11.4247  11.4363  11.4392  11.4511  11.4587
    11.4670  11.4794  11.4897  11.4924  11.5013  11.5173  11.5267  11.5385
    11.5479  11.5631  11.5724  11.5820  11.5879  11.6008  11.6075  11.6193
    11.6312  11.6394  11.6457  11.6556  11.6659  11.6735  11.6857  11.6920
    11.6979  11.7079  11.7136  11.7233  11.7329  11.7418  11.7473  11.7605
    11.7747  11.7845  11.8064  11.8109  11.8184  11.8252  11.8396  11.8478
    11.8612  11.8751  11.8795  11.8911  11.9029  11.9121  11.9264  11.9367
    11.9495  11.9640  11.9743  11.9913  11.9939  12.0091  12.0146  12.0274
    12.0511  12.0590  12.0709  12.0836  12.1045  12.1218  12.1367  12.1484
    12.1652  12.1828  12.1984  12.2130  12.2194  12.2359  12.2499  12.2730
    12.2766  12.2995  12.3140  12.3365  12.3537  12.3853  12.4005  12.4188
    12.4557  12.4729  12.5218  12.5594  12.5741  12.6082  12.6232  12.6314
    12.6741  12.7065  12.7218  12.7867  12.8315  12.8635  12.8699  12.9093
    12.9136  12.9391  12.9707  13.0217  13.0452  13.0886  13.1125  13.1405
    13.1736  13.1931  13.2046  13.2450  13.2613  13.2973  13.3086  13.3395
    13.3670  13.3807  13.4314  13.4545  13.4727  13.5241  13.5460  13.5579
    13.6109  13.6218  13.6654  13.6806  13.6992  13.7371  13.7649  13.7939
    13.8146  13.8353  13.8622  13.8879  13.9109  13.9394  13.9777  13.9933
    14.0056  14.0240  14.0629  14.0767  14.1078  14.1177  14.1340  14.1601
    14.1717  14.1929  14.2227  14.2549  14.2823  14.2943  14.3174  14.3422
    14.3556  14.3630  14.3744  14.3997  14.4435  14.4591  14.4884  14.4955
    14.5203  14.5472  14.5711  14.5910  14.6139  14.6195  14.6665  14.6793
    14.7079  14.7148  14.7350  14.7572  14.7849  14.8081  14.8564  14.8782
    14.8955  14.9198  14.9261  14.9612  14.9726  15.0019  15.0187  15.0429
    15.0656  15.0856  15.1220  15.1389  15.1741  15.1944  15.2156  15.2404
    15.2787  15.2955  15.3047  15.3458  15.3591  15.3839  15.3969  15.4284
    15.4665  15.4932  15.5068  15.5233  15.5639  15.5860  15.6311  15.6538
    15.6798  15.6996  15.7273  15.7396  15.7618  15.8190  15.8356  15.8633
    15.9002  15.9377  15.9510  15.9864  16.0189  16.0486  16.0821  16.1103
    16.1366  16.1640  16.2007  16.2226  16.2330  16.2492  16.2704  16.3066
    16.3351  16.3591  16.3930  16.4072  16.4483  16.4659  16.5050  16.5327
    16.5564  16.5746  16.6055  16.6254  16.6601  16.6862  16.7130  16.7358
    16.7837  16.8047  16.8334  16.8421  16.8651  16.9130  16.9251  16.9403
    16.9868  17.0225  17.0360  17.0708  17.0993  17.1299  17.1568  17.2007
    17.2176  17.2388  17.2543  17.2817  17.3054  17.3498  17.3722  17.3859
    17.4051  17.4687  17.4826  17.5034  17.5308  17.5546  17.5677  17.5974
    17.6134  17.6410  17.6761  17.6872  17.7109  17.7176  17.7630  17.7877
    17.8077  17.8288  17.8581  17.9011  17.9166  17.9312  17.9717  17.9894
    18.0162  18.0425  18.0586  18.0865  18.0976  18.1316  18.1507  18.1691
    18.1817  18.2343  18.2531  18.2729  18.2956  18.3059  18.3669  18.3913
    18.4103  18.4264  18.4518  18.4813  18.5056  18.5411  18.5641  18.5889
    18.6081  18.6610  18.6924  18.7147  18.7651  18.7807  18.7895  18.8138
    18.8875  18.9109  18.9540  18.9827  18.9975  19.0300  19.0817  19.0937
    19.1252  19.1502  19.1741  19.2162  19.2356  19.2648  19.3221  19.3464
    19.3874  19.4357  19.4571  19.4810  19.5298  19.5666  19.6090  19.6535
    19.6805  19.7347  19.7581  19.7938  19.8533  19.8673  19.9066  19.9687
    20.0046  20.0195  20.0637  20.1103  20.1387  20.2113  20.2614  20.2911
    20.3268  20.3548  20.3936  20.4238  20.4628  20.5544  20.6098  20.6342
    20.6835  20.7289  20.7567  20.7891  20.8419  20.8954  20.9396  20.9941
    21.0119  21.1016  21.1451  21.1937  21.2466  21.2962  21.3530  21.3883
    21.4363  21.4839  21.5487  21.5717  21.6456  21.6840  21.7094  21.7567
    21.8121  21.8728  21.8911  21.9426  21.9950  22.0461  22.0832  22.1315
    22.1619  22.2332  22.2829  22.3387  22.3623  22.4070  22.4712  22.4895
    22.5477  22.6059  22.6683  22.7413  22.7712  22.8253  22.8703  22.9299
    22.9604  23.0000  23.0185  23.0649  23.0801  23.1667  23.1866  23.2496
    23.3030  23.3332  23.3674  23.3965  23.4226  23.4837  23.5308  23.5482
    23.5961  23.6442  23.7075  23.7549  23.7903  23.8509  23.8678  23.9262
    23.9615  24.0061  24.0314  24.0620  24.1054  24.1421  24.1661  24.2249
    24.2655  24.2828  24.3565  24.3845  24.4156  24.4783  24.5262  24.5546
    24.6250  24.6511  24.6796  24.6964  24.7702  24.7949  24.8502  24.8878
    24.9295  24.9450  24.9945  25.0368  25.0793  25.0907  25.1231  25.1763
    25.2158  25.2503  25.2779  25.3362  25.3990  25.4328  25.4632  25.4864
    25.5548  25.5921  25.6209  25.6610  25.6908  25.7205

     occupation numbers 
     1.0000   1.0000   1.0000   1.0000   1.0000   1.0000   1.0000   1.0000
     1.0000   1.0000   1.0000   1.0000   1.0000   1.0000   1.0000   1.0000
     1.0000   1.0000   1.0000   1.0000   1.0000   1.0000   1.0000   1.0000
     1.0000   1.0000   1.0000   1.0000   1.0000   1.0000   1.0000   1.0000
     1.0000   1.0000   1.0000   1.0000   1.0000   1.0000   1.0000   1.0000
     1.0000   1.0000   1.0000   1.0000   1.0000   1.0000   1.0000   1.0000
     1.0000   1.0000   1.0000   1.0000   1.0000   1.0000   1.0000   1.0000
     1.0000   1.0000   1.0000   1.0000   1.0000   1.0000   1.0000   1.0000
     1.0000   1.0000   1.0000   1.0000   1.0000   1.0000   1.0000   1.0000
     1.0000   1.0000   1.0000   1.0000   1.0000   1.0000   1.0000   1.0000
     1.0000   1.0000   1.0000   1.0000   1.0000   1.0000   1.0000   1.0000
     1.0000   1.0000   1.0000   1.0000   1.0000   1.0000   1.0000   1.0000
     1.0000   1.0000   1.0000   1.0000   1.0000   1.0000   1.0000   1.0000
     1.0000   1.0000   1.0000   1.0000   1.0000   1.0000   1.0000   1.0000
     1.0000   1.0000   1.0000   1.0000   1.0000   1.0000   1.0000   1.0000
     1.0000   1.0000   1.0000   1.0000   1.0000   1.0000   1.0000   1.0000
     1.0000   1.0000   1.0000   1.0000   1.0000   1.0000   1.0000   1.0000
     1.0000   1.0000   1.0000   1.0000   1.0000   1.0000   1.0000   1.0000
     1.0000   1.0000   1.0000   1.0000   1.0000   1.0000   1.0000   1.0000
     1.0000   1.0000   1.0000   1.0000   1.0000   1.0000   1.0000   1.0000
     1.0000   1.0000   1.0000   1.0000   1.0000   1.0000   1.0000   1.0000
     1.0000   1.0000   1.0000   1.0000   1.0000   1.0000   1.0000   1.0000
     1.0000   1.0000   1.0000   1.0000   1.0000   1.0000   1.0000   1.0000
     1.0000   1.0000   1.0000   1.0000   1.0000   1.0000   1.0000   1.0000
     1.0000   1.0000   1.0000   1.0000   1.0000   1.0000   1.0000   1.0000
     1.0000   1.0000   1.0000   1.0000   1.0000   1.0000   1.0000   1.0000
     1.0000   1.0000   1.0000   1.0000   1.0000   1.0000   1.0000   1.0000
     1.0000   1.0000   1.0000   1.0000   1.0000   1.0000   1.0000   1.0000
     1.0000   1.0000   1.0000   1.0000   1.0000   1.0000   1.0000   1.0000
     1.0000   1.0000   1.0000   1.0000   1.0000   1.0000   1.0000   1.0000
     1.0000   1.0000   1.0000   1.0000   1.0000   1.0000   1.0000   1.0000
     1.0000   1.0000   1.0000   1.0000   1.0000   1.0000   1.0000   1.0000
     1.0000   1.0000   1.0000   1.0000   1.0000   1.0000   1.0000   1.0000
     1.0000   1.0000   1.0000   1.0000   1.0000   1.0000   1.0000   1.0000
     1.0000   1.0000   1.0000   1.0000   1.0000   1.0000   1.0000   1.0000
     1.0000   1.0000   1.0000   1.0000   1.0000   1.0000   1.0000   1.0000
     1.0000   1.0000   1.0000   1.0000   1.0000   1.0000   1.0000   1.0000
     1.0000   1.0000   1.0000   1.0000   1.0000   1.0000   1.0000   1.0000
     1.0000   1.0000   1.0000   1.0000   1.0000   1.0000   1.0000   1.0000
     1.0000   1.0000   1.0000   1.0000   1.0000   1.0000   1.0000   1.0000
     1.0000   1.0000   1.0000   1.0000   1.0000   1.0000   1.0000   1.0000
     1.0000   1.0000   1.0000   1.0000   1.0000   1.0000   1.0000   1.0000
     1.0000   1.0000   1.0000   1.0000   1.0000   1.0000   1.0000   1.0000
     1.0000   1.0000   1.0000   1.0000   1.0000   1.0000   1.0000   1.0000
     1.0000   1.0000   1.0000   1.0000   1.0000   1.0000   1.0000   1.0000
     1.0000   1.0000   1.0000   1.0000   1.0000   1.0000   1.0000   1.0000
     1.0000   1.0000   1.0000   1.0000   1.0000   1.0000   1.0000   1.0000
     1.0000   1.0000   1.0000   1.0000   1.0000   1.0000   1.0000   1.0000
     1.0000   1.0000   1.0000   1.0000   1.0000   1.0000   1.0000   1.0000
     1.0000   1.0000   1.0000   1.0000   1.0000   1.0000   1.0000   1.0000
     1.0000   1.0000   1.0000   1.0000   1.0000   1.0000   1.0000   1.0000
     1.0000   1.0000   1.0000   1.0000   1.0000   1.0000   1.0000   1.0000
     1.0000   1.0000   1.0000   1.0000   1.0000   1.0000   1.0000   1.0000
     1.0000   1.0000   1.0000   1.0000   1.0000   1.0000   1.0000   1.0000
     1.0000   1.0000   1.0000   1.0000   1.0000   1.0000   1.0000   1.0000
     1.0000   1.0000   1.0000   1.0000   1.0000   1.0000   1.0000   1.0000
     1.0000   1.0000   1.0000   1.0000   1.0000   1.0000   1.0000   1.0000
     1.0000   1.0000   1.0000   1.0000   1.0000   1.0000   1.0000   1.0000
     1.0000   1.0000   1.0000   1.0000   1.0000   1.0000   1.0000   1.0000
     1.0000   1.0000   1.0000   1.0000   1.0000   1.0000   1.0000   1.0000
     1.0000   1.0000   1.0000   1.0000   1.0000   1.0000   1.0000   1.0000
     1.0000   1.0000   1.0000   1.0000   1.0000   1.0000   1.0000   1.0000
     1.0000   1.0000   1.0000   1.0000   1.0000   1.0000   1.0000   1.0000
     1.0000   1.0000   1.0000   1.0000   1.0000   1.0000   1.0000   1.0000
     1.0000   1.0000   1.0000   1.0000   1.0000   1.0000   1.0000   1.0000
     1.0000   1.0000   1.0000   1.0000   1.0000   1.0000   1.0000   1.0000
     1.0000   1.0000   1.0000   1.0000   1.0000   1.0000   1.0000   1.0000
     1.0000   1.0000   1.0000   1.0000   1.0000   1.0000   1.0000   1.0000
     1.0000   1.0000   1.0000   1.0000   1.0000   1.0000   1.0000   1.0000
     1.0000   1.0000   1.0000   1.0000   1.0000   1.0000   1.0000   1.0000
     1.0000   1.0000   1.0000   1.0000   1.0000   1.0000   1.0000   1.0000
     1.0000   1.0000   1.0000   1.0000   1.0000   1.0000   1.0000   1.0000
     1.0000   1.0000   1.0000   1.0000   1.0000   1.0000   1.0000   1.0000
     1.0000   1.0000   1.0000   1.0000   1.0000   1.0000   1.0000   1.0000
     1.0000   1.0000   1.0000   1.0000   1.0000   1.0000   1.0000   1.0000
     1.0000   1.0000   1.0000   1.0000   1.0000   1.0000   1.0000   1.0000
[...]
     atom   84 type  2   force =     0.00032872   -0.00010721   -0.00006119
     atom   85 type  3   force =     0.00067862   -0.00004564   -0.00138621
     atom   86 type  2   force =    -0.00035595   -0.00025038   -0.00018626
     atom   87 type  3   force =     0.00053717   -0.00118790   -0.00394211
     atom   88 type  3   force =    -0.00230327    0.00099955   -0.00200858
     atom   89 type  1   force =    -0.00099156   -0.00299348    0.00083203
     atom   90 type  3   force =     0.00006440   -0.00168051    0.00162137
     atom   91 type  2   force =    -0.00038507    0.00002819    0.00074786
     atom   92 type  2   force =    -0.00036672   -0.00028346   -0.00005855
     atom   93 type  2   force =     0.00020601    0.00017366   -0.00024881
     atom   94 type  2   force =     0.00017027    0.00040787   -0.00040175
     atom   95 type  2   force =    -0.00035021   -0.00034776    0.00032228
     atom   96 type  3   force =    -0.00130019   -0.00048351    0.00130239
     atom   97 type  3   force =    -0.00153884    0.00037435    0.00032010
     atom   98 type  2   force =     0.00016325    0.00003330   -0.00000614
     atom   99 type  2   force =    -0.00044707   -0.00033546    0.00022882
     atom  100 type  3   force =    -0.00141598   -0.00033725   -0.00002533
     The Hubbard contrib.    to forces
     atom    1 type  2   force =     0.00000000    0.00000000    0.00000000
     atom    2 type  3   force =     0.00000000    0.00000000    0.00000000
     atom    3 type  2   force =     0.00000000    0.00000000    0.00000000
     atom    4 type  2   force =     0.00000000    0.00000000    0.00000000
     atom    5 type  3   force =     0.00000000    0.00000000    0.00000000
     atom    6 type  2   force =     0.00000000    0.00000000    0.00000000
     atom    7 type  2   force =     0.00000000    0.00000000    0.00000000
     atom    8 type  2   force =     0.00000000    0.00000000    0.00000000
     atom    9 type  3   force =     0.00000000    0.00000000    0.00000000
     atom   10 type  2   force =     0.00000000    0.00000000    0.00000000
     atom   11 type  3   force =     0.00000000    0.00000000    0.00000000
     atom   12 type  3   force =     0.00000000    0.00000000    0.00000000
     atom   13 type  3   force =     0.00000000    0.00000000    0.00000000
     atom   14 type  3   force =     0.00000000    0.00000000    0.00000000
     atom   15 type  2   force =     0.00000000    0.00000000    0.00000000
     atom   16 type  3   force =     0.00000000    0.00000000    0.00000000
     atom   17 type  2   force =     0.00000000    0.00000000    0.00000000
     atom   18 type  2   force =     0.00000000    0.00000000    0.00000000
     atom   19 type  3   force =     0.00000000    0.00000000    0.00000000
     atom   20 type  2   force =     0.00000000    0.00000000    0.00000000
     atom   21 type  2   force =     0.00000000    0.00000000    0.00000000
     atom   22 type  2   force =     0.00000000    0.00000000    0.00000000
     atom   23 type  3   force =     0.00000000    0.00000000    0.00000000
     atom   24 type  2   force =     0.00000000    0.00000000    0.00000000
     atom   25 type  2   force =     0.00000000    0.00000000    0.00000000
     atom   26 type  3   force =     0.00000000    0.00000000    0.00000000
     atom   27 type  2   force =     0.00000000    0.00000000    0.00000000
     atom   28 type  2   force =     0.00000000    0.00000000    0.00000000
     atom   29 type  3   force =     0.00000000    0.00000000    0.00000000
     atom   30 type  2   force =     0.00000000    0.00000000    0.00000000
     atom   31 type  3   force =     0.00000000    0.00000000    0.00000000
     atom   32 type  3   force =     0.00000000    0.00000000    0.00000000
     atom   33 type  3   force =     0.00000000    0.00000000    0.00000000
     atom   34 type  1   force =     0.00000000    0.00000000    0.00000000
     atom   35 type  2   force =     0.00000000    0.00000000    0.00000000
     atom   36 type  2   force =     0.00000000    0.00000000    0.00000000
     atom   37 type  3   force =     0.00000000    0.00000000    0.00000000
     atom   38 type  3   force =     0.00000000    0.00000000    0.00000000
     atom   39 type  2   force =     0.00000000    0.00000000    0.00000000
     atom   40 type  3   force =     0.00000000    0.00000000    0.00000000
     atom   41 type  3   force =     0.00000000    0.00000000    0.00000000
     atom   42 type  3   force =     0.00000000    0.00000000    0.00000000
     atom   43 type  2   force =     0.00000000    0.00000000    0.00000000
     atom   44 type  3   force =     0.00000000    0.00000000    0.00000000
     atom   45 type  2   force =     0.00000000    0.00000000    0.00000000
     atom   46 type  3   force =     0.00000000    0.00000000    0.00000000
     atom   47 type  3   force =     0.00000000    0.00000000    0.00000000
     atom   48 type  3   force =     0.00000000    0.00000000    0.00000000
     atom   49 type  2   force =     0.00000000    0.00000000    0.00000000
     atom   50 type  3   force =     0.00000000    0.00000000    0.00000000
     atom   51 type  3   force =     0.00000000    0.00000000    0.00000000
     atom   52 type  3   force =     0.00000000    0.00000000    0.00000000
     atom   53 type  2   force =     0.00000000    0.00000000    0.00000000
     atom   54 type  3   force =     0.00000000    0.00000000    0.00000000
     atom   55 type  3   force =     0.00000000    0.00000000    0.00000000
     atom   56 type  2   force =     0.00000000    0.00000000    0.00000000
     atom   57 type  3   force =     0.00000000    0.00000000    0.00000000
     atom   58 type  2   force =     0.00000000    0.00000000    0.00000000
     atom   59 type  3   force =     0.00000000    0.00000000    0.00000000
     atom   60 type  3   force =     0.00000000    0.00000000    0.00000000
     atom   61 type  2   force =     0.00000000    0.00000000    0.00000000
     atom   62 type  3   force =     0.00000000    0.00000000    0.00000000
     atom   63 type  2   force =     0.00000000    0.00000000    0.00000000
     atom   64 type  2   force =     0.00000000    0.00000000    0.00000000
     atom   65 type  3   force =     0.00000000    0.00000000    0.00000000
     atom   66 type  2   force =     0.00000000    0.00000000    0.00000000
     atom   67 type  2   force =     0.00000000    0.00000000    0.00000000
     atom   68 type  2   force =     0.00000000    0.00000000    0.00000000
     atom   69 type  2   force =     0.00000000    0.00000000    0.00000000
     atom   70 type  3   force =     0.00000000    0.00000000    0.00000000
     atom   71 type  2   force =     0.00000000    0.00000000    0.00000000
     atom   72 type  2   force =     0.00000000    0.00000000    0.00000000
     atom   73 type  3   force =     0.00000000    0.00000000    0.00000000
     atom   74 type  2   force =     0.00000000    0.00000000    0.00000000
     atom   75 type  2   force =     0.00000000    0.00000000    0.00000000
     atom   76 type  3   force =     0.00000000    0.00000000    0.00000000
     atom   77 type  3   force =     0.00000000    0.00000000    0.00000000
     atom   78 type  2   force =     0.00000000    0.00000000    0.00000000
     atom   79 type  3   force =     0.00000000    0.00000000    0.00000000
     atom   80 type  2   force =     0.00000000    0.00000000    0.00000000
     atom   81 type  3   force =     0.00000000    0.00000000    0.00000000
     atom   82 type  3   force =     0.00000000    0.00000000    0.00000000
     atom   83 type  3   force =     0.00000000    0.00000000    0.00000000
     atom   84 type  2   force =     0.00000000    0.00000000    0.00000000
     atom   85 type  3   force =     0.00000000    0.00000000    0.00000000
     atom   86 type  2   force =     0.00000000    0.00000000    0.00000000
     atom   87 type  3   force =     0.00000000    0.00000000    0.00000000
     atom   88 type  3   force =     0.00000000    0.00000000    0.00000000
     atom   89 type  1   force =     0.00000000    0.00000000    0.00000000
     atom   90 type  3   force =     0.00000000    0.00000000    0.00000000
     atom   91 type  2   force =     0.00000000    0.00000000    0.00000000
     atom   92 type  2   force =     0.00000000    0.00000000    0.00000000
     atom   93 type  2   force =     0.00000000    0.00000000    0.00000000
     atom   94 type  2   force =     0.00000000    0.00000000    0.00000000
     atom   95 type  2   force =     0.00000000    0.00000000    0.00000000
     atom   96 type  3   force =     0.00000000    0.00000000    0.00000000
     atom   97 type  3   force =     0.00000000    0.00000000    0.00000000
     atom   98 type  2   force =     0.00000000    0.00000000    0.00000000
     atom   99 type  2   force =     0.00000000    0.00000000    0.00000000
     atom  100 type  3   force =     0.00000000    0.00000000    0.00000000
     The SCF correction term to forces
     atom    1 type  2   force =    -0.00075013    0.00085066    0.00043897
     atom    2 type  3   force =    -0.00027889   -0.00066822    0.00055604
     atom    3 type  2   force =    -0.00013789   -0.00001518    0.00033761
     atom    4 type  2   force =     0.00002862   -0.00051918   -0.00039206
     atom    5 type  3   force =    -0.00017119   -0.00022009   -0.00008088
     atom    6 type  2   force =    -0.00026051   -0.00051448   -0.00066137
     atom    7 type  2   force =    -0.00101545   -0.00004278    0.00013957
     atom    8 type  2   force =    -0.00051825    0.00171408    0.00044125
     atom    9 type  3   force =     0.00007583    0.00041985   -0.00005615
     atom   10 type  2   force =     0.00005876    0.00125435    0.00017929
     atom   11 type  3   force =     0.00006746    0.00049275    0.00016411
     atom   12 type  3   force =     0.00044507    0.00040721   -0.00004430
     atom   13 type  3   force =    -0.00035632    0.00054115   -0.00003130
     atom   14 type  3   force =     0.00018664    0.00068547   -0.00020605
     atom   15 type  2   force =    -0.00014946    0.00078408    0.00012107
     atom   16 type  3   force =     0.00008533   -0.00040017    0.00003249
     atom   17 type  2   force =     0.00098870   -0.00065167    0.00013834
     atom   18 type  2   force =     0.00059238   -0.00021805   -0.00023565
     atom   19 type  3   force =     0.00012143   -0.00027994   -0.00020477
     atom   20 type  2   force =     0.00012297   -0.00013640   -0.00001838
     atom   21 type  2   force =    -0.00030083   -0.00074679    0.00008521
     atom   22 type  2   force =     0.00024550   -0.00097847    0.00038349
     atom   23 type  3   force =     0.00021155   -0.00068595    0.00002675
     atom   24 type  2   force =     0.00023228   -0.00085173   -0.00021032
     atom   25 type  2   force =     0.00025704   -0.00125791   -0.00061847
     atom   26 type  3   force =     0.00009123    0.00050975    0.00050157
     atom   27 type  2   force =    -0.00002564   -0.00047292    0.00052488
     atom   28 type  2   force =     0.00021447   -0.00060066   -0.00010757
     atom   29 type  3   force =     0.00017120    0.00037338   -0.00036134
     atom   30 type  2   force =     0.00002444    0.00118839   -0.00073703
     atom   31 type  3   force =     0.00033893   -0.00050093   -0.00011115
     atom   32 type  3   force =    -0.00029557    0.00036940    0.00029404
     atom   33 type  3   force =     0.00013375    0.00068988    0.00044362
     atom   34 type  1   force =     0.00001480    0.00018378    0.00007525
     atom   35 type  2   force =     0.00055802    0.00140907   -0.00038360
     atom   36 type  2   force =     0.00056937    0.00124332   -0.00032562
     atom   37 type  3   force =     0.00008654    0.00087255   -0.00045630
     atom   38 type  3   force =    -0.00002539    0.00077455   -0.00012987
     atom   39 type  2   force =    -0.00023494    0.00063847    0.00063779
     atom   40 type  3   force =     0.00023730   -0.00008568    0.00026172
     atom   41 type  3   force =    -0.00023547    0.00016787   -0.00031066
     atom   42 type  3   force =     0.00040605   -0.00033362   -0.00037592
     atom   43 type  2   force =    -0.00020802   -0.00028901   -0.00063284
     atom   44 type  3   force =    -0.00010689   -0.00044384    0.00019884
     atom   45 type  2   force =    -0.00020094   -0.00132201    0.00083079
     atom   46 type  3   force =     0.00003429   -0.00077595    0.00064030
     atom   47 type  3   force =    -0.00012568   -0.00089988    0.00004424
     atom   48 type  3   force =     0.00004034   -0.00071347   -0.00057947
     atom   49 type  2   force =    -0.00002512   -0.00162380   -0.00062595
     atom   50 type  3   force =    -0.00031032   -0.00089782   -0.00005076
     atom   51 type  3   force =     0.00032059    0.00040113    0.00045534
     atom   52 type  3   force =    -0.00005919    0.00009603   -0.00019610
     atom   53 type  2   force =     0.00015460    0.00061962   -0.00054929
     atom   54 type  3   force =     0.00019279    0.00041383   -0.00050495
     atom   55 type  3   force =     0.00042340    0.00030824    0.00028924
     atom   56 type  2   force =    -0.00053289    0.00005227    0.00005896
     atom   57 type  3   force =    -0.00010246    0.00057067   -0.00009866
     atom   58 type  2   force =    -0.00040867    0.00111364   -0.00070326
     atom   59 type  3   force =     0.00010317    0.00051457    0.00018403
     atom   60 type  3   force =     0.00000227    0.00043086    0.00026308
     atom   61 type  2   force =     0.00063667    0.00138662    0.00020359
     atom   62 type  3   force =    -0.00041144   -0.00022465    0.00040571
     atom   63 type  2   force =    -0.00105486    0.00002449   -0.00047092
     atom   64 type  2   force =    -0.00090096   -0.00078037   -0.00040904
     atom   65 type  3   force =    -0.00028445   -0.00001216   -0.00003956
     atom   66 type  2   force =     0.00004747    0.00060069    0.00013761
     atom   67 type  2   force =    -0.00029564   -0.00027839    0.00041528
     atom   68 type  2   force =    -0.00038958   -0.00107380    0.00049529
     atom   69 type  2   force =    -0.00064548   -0.00080695   -0.00002144
     atom   70 type  3   force =    -0.00007969   -0.00038644   -0.00037025
     atom   71 type  2   force =    -0.00043933   -0.00118150   -0.00063721
     atom   72 type  2   force =     0.00053108   -0.00093156   -0.00049676
     atom   73 type  3   force =    -0.00000228   -0.00062878    0.00008725
     atom   74 type  2   force =     0.00033196   -0.00055982    0.00046605
     atom   75 type  2   force =    -0.00032780    0.00072484   -0.00021287
     atom   76 type  3   force =    -0.00015452   -0.00017261    0.00004998
     atom   77 type  3   force =     0.00004863    0.00035342   -0.00026153
     atom   78 type  2   force =     0.00029654   -0.00016843   -0.00005487
     atom   79 type  3   force =     0.00024732   -0.00006150    0.00004496
     atom   80 type  2   force =    -0.00035090    0.00064685    0.00029886
     atom   81 type  3   force =    -0.00017835    0.00016830    0.00010248
     atom   82 type  3   force =    -0.00035814    0.00048103    0.00002752
     atom   83 type  3   force =    -0.00004796    0.00016031   -0.00024995
     atom   84 type  2   force =    -0.00005446    0.00045180   -0.00000257
     atom   85 type  3   force =     0.00001778    0.00042671   -0.00001248
     atom   86 type  2   force =    -0.00042432    0.00071106    0.00012930
     atom   87 type  3   force =    -0.00003732   -0.00004823   -0.00006502
     atom   88 type  3   force =    -0.00030157   -0.00035729   -0.00012962
     atom   89 type  1   force =     0.00009581   -0.00005103    0.00000027
     atom   90 type  3   force =     0.00017818   -0.00018282    0.00008292
     atom   91 type  2   force =     0.00019889    0.00040627    0.00013947
     atom   92 type  2   force =     0.00017529   -0.00051580    0.00023174
     atom   93 type  2   force =    -0.00009046   -0.00002520    0.00029270
     atom   94 type  2   force =     0.00028445   -0.00060299   -0.00008008
     atom   95 type  2   force =    -0.00020059   -0.00038063    0.00003265
     atom   96 type  3   force =     0.00015357   -0.00023884   -0.00007071
     atom   97 type  3   force =     0.00029399   -0.00046138   -0.00001252
     atom   98 type  2   force =    -0.00003923   -0.00066392    0.00004669
     atom   99 type  2   force =     0.00031688   -0.00069373    0.00013413
     atom  100 type  3   force =    -0.00001270   -0.00043060   -0.00002727

     Total force =     0.912617     Total SCF correction =     0.008236

     Writing output data file Zr49Cu49Al2.save
 
     init_run     :     39.55s CPU     40.51s WALL (       1 calls)
     electrons    :   5943.79s CPU   6044.34s WALL (       1 calls)
     forces       :     24.35s CPU     25.05s WALL (       1 calls)

     Called by init_run:
     wfcinit      :     31.96s CPU     32.34s WALL (       1 calls)
     wfcinit:atom :      0.06s CPU      0.09s WALL (       1 calls)
     wfcinit:wfcr :     31.62s CPU     31.90s WALL (       1 calls)
     potinit      :      1.19s CPU      1.27s WALL (       1 calls)

     Called by electrons:
     c_bands      :   5059.03s CPU   5118.86s WALL (      52 calls)
     sum_band     :    750.21s CPU    771.16s WALL (      52 calls)
     v_of_rho     :     22.61s CPU     23.31s WALL (      53 calls)
     v_h          :      2.19s CPU      2.26s WALL (      53 calls)
     v_xc         :     20.81s CPU     21.45s WALL (      54 calls)
     newd         :     92.50s CPU    110.53s WALL (      53 calls)
     PAW_pot      :      9.49s CPU      9.89s WALL (      53 calls)
     mix_rho      :      5.61s CPU      5.91s WALL (      52 calls)

     Called by c_bands:
     init_us_2    :      9.28s CPU      9.36s WALL (     105 calls)
     cegterg      :   4659.87s CPU   4708.47s WALL (      52 calls)

     Called by sum_band:
     sum_band:bec :      1.41s CPU      1.42s WALL (      52 calls)
     addusdens    :    121.44s CPU    138.09s WALL (      52 calls)

     Called by *egterg:
     h_psi        :   2036.64s CPU   2047.88s WALL (     133 calls)
     s_psi        :    422.38s CPU    423.55s WALL (     133 calls)
     g_psi        :      2.66s CPU      2.67s WALL (      80 calls)
     cdiaghg      :    967.23s CPU    980.84s WALL (     132 calls)
     cegterg:over :    504.83s CPU    507.56s WALL (      80 calls)
     cegterg:upda :    290.83s CPU    292.09s WALL (      80 calls)
     cegterg:last :    260.00s CPU    260.22s WALL (      52 calls)
     cdiaghg:chol :     48.48s CPU     48.91s WALL (     132 calls)
     cdiaghg:inve :     57.69s CPU     58.06s WALL (     132 calls)
     cdiaghg:para :    141.89s CPU    147.81s WALL (     264 calls)

     Called by h_psi:
     h_psi:pot    :   2027.63s CPU   2038.84s WALL (     133 calls)
     h_psi:calbec :    415.13s CPU    416.12s WALL (     133 calls)
     vloc_psi     :   1200.46s CPU   1209.35s WALL (     133 calls)
     add_vuspsi   :    412.03s CPU    413.36s WALL (     133 calls)

     General routines
     calbec       :    629.71s CPU    631.17s WALL (     189 calls)
     fft          :     29.57s CPU     30.93s WALL (     855 calls)
     ffts         :      0.78s CPU      0.93s WALL (     105 calls)
     fftw         :   1097.47s CPU   1106.01s WALL (  290926 calls)
     interpolate  :      4.81s CPU      5.25s WALL (     105 calls)
 
     Parallel routines
     fft_scatt_xy :     97.91s CPU     98.48s WALL (  291886 calls)
     fft_scatt_yz :    211.72s CPU    214.46s WALL (  291886 calls)

     PAW routines
     PAW_pot      :      9.49s CPU      9.89s WALL (      53 calls)
 
     PWSCF        :     1h40m CPU        1h47m WALL

 
   This run was terminated on:  18:42: 9  19Apr2019            

=------------------------------------------------------------------------------=
   JOB DONE.
=------------------------------------------------------------------------------=
