
     Program PWSCF v.6.2 (svn rev. 13949:13950) starts on 19Apr2019 at 16:57:22 

     This program is part of the open-source Quantum ESPRESSO suite
     for quantum simulation of materials; please cite
         "P. Giannozzi et al., J. Phys.:Condens. Matter 21 395502 (2009);
         "P. Giannozzi et al., J. Phys.:Condens. Matter 29 465901 (2017);
          URL http://www.quantum-espresso.org", 
     in publications or presentations arising from this work. More details at
     http://www.quantum-espresso.org/quote

     Parallel version (MPI & OpenMP), running on     192 processor cores
     Number of MPI processes:               192
     Threads/MPI process:                     1

     MPI processes distributed on     8 nodes
     K-points division:     npool     =       8
     R & G space division:  proc/nbgrp/npool/nimage =      24
     Waiting for input...
     Reading input from standard input

     Current dimensions of program PWSCF are:
     Max number of different atomic species (ntypx) = 10
     Max number of k-points (npk) =  40000
     Max angular momentum in pseudopotentials (lmaxx) =  3
               file Al.aryjr-1.0.0-ld1.UPF: wavefunction(s)  3S 3P renormalized
               file Cu.aryjr-1.0.0-ld1.UPF: wavefunction(s)  4S 3P 3D renormalized
               file Zr.aryjr-1.0.0-ld1.UPF: wavefunction(s)  4S 4P renormalized

     Subspace diagonalization in iterative solution of the eigenvalue problem:
     one sub-group per band group will be used
     scalapack distributed-memory algorithm (size of sub-group:  3*  3 procs)

 
     Parallelization info
     --------------------
     sticks:   dense  smooth     PW     G-vecs:    dense   smooth      PW
     Min         959     480    123               109501    38709    5088
     Max         960     481    124               109504    38714    5094
     Sum       23029   11521   2965              2628049   929093  122183
 

     Title: 
     Zr49Cu49Al2                                                                


     bravais-lattice index     =            0
     lattice parameter (alat)  =      22.7304  a.u.
     unit-cell volume          =   11744.1708 (a.u.)^3
     number of atoms/cell      =          100
     number of atomic types    =            3
     number of electrons       =      1525.00
     number of Kohn-Sham states=         1086
     kinetic-energy cutoff     =      70.0000  Ry
     charge density cutoff     =     560.0000  Ry
     convergence threshold     =      1.0E-06
     mixing beta               =       0.4000
     number of iterations used =            8  plain     mixing
     Exchange-correlation      =  SLA  PW   PBX  PBC ( 1  4  3  4 0 0)

     celldm(1)=  22.730420  celldm(2)=   0.000000  celldm(3)=   0.000000
     celldm(4)=   0.000000  celldm(5)=   0.000000  celldm(6)=   0.000000

     crystal axes: (cart. coord. in units of alat)
               a(1) = (   1.000000   0.000000   0.000000 )  
               a(2) = (   0.000000   1.000000   0.000000 )  
               a(3) = (   0.500000   0.000000   1.000000 )  

     reciprocal axes: (cart. coord. in units 2 pi/alat)
               b(1) = (  1.000000  0.000000 -0.500000 )  
               b(2) = (  0.000000  1.000000  0.000000 )  
               b(3) = (  0.000000  0.000000  1.000000 )  


     PseudoPot. # 1 for Al read from file:
     /scratch/rmnvm/ary.junior/UPFs/Al.aryjr-1.0.0-ld1.UPF
     MD5 check sum: 23518be3108914e66f28d0b5ae5ea896
     Pseudo is Projector augmented-wave + core cor, Zval =  3.0
     Generated using "atomic" code by A. Dal Corso  v.5.3.0 svn rev. 11974
     Shape of augmentation charge: PSQ
     Using radial grid of 1135 points,  4 beta functions with: 
                l(1) =   0
                l(2) =   0
                l(3) =   1
                l(4) =   1
     Q(r) pseudized with 0 coefficients 


     PseudoPot. # 2 for Cu read from file:
     /scratch/rmnvm/ary.junior/UPFs/Cu.aryjr-1.0.0-ld1.UPF
     MD5 check sum: 9308548b6d8348cb0f7fa79efd90ef1e
     Pseudo is Projector augmented-wave + core cor, Zval = 19.0
     Generated using "atomic" code by A. Dal Corso  v.5.3.0 svn rev. 11974
     Shape of augmentation charge: PSQ
     Using radial grid of 1199 points,  6 beta functions with: 
                l(1) =   0
                l(2) =   0
                l(3) =   1
                l(4) =   1
                l(5) =   2
                l(6) =   2
     Q(r) pseudized with 0 coefficients 


     PseudoPot. # 3 for Zr read from file:
     /scratch/rmnvm/ary.junior/UPFs/Zr.aryjr-1.0.0-ld1.UPF
     MD5 check sum: 20f111a850f3481eb9ed9a4dbb9cca44
     Pseudo is Projector augmented-wave + core cor, Zval = 12.0
     Generated using "atomic" code by A. Dal Corso  v.5.3.0 svn rev. 11974
     Shape of augmentation charge: PSQ
     Using radial grid of 1225 points,  6 beta functions with: 
                l(1) =   0
                l(2) =   0
                l(3) =   1
                l(4) =   1
                l(5) =   2
                l(6) =   2
     Q(r) pseudized with 0 coefficients 


     atomic species   valence    mass     pseudopotential
        Al             3.00    26.98150     Al( 1.00)
        Cu            19.00    63.54630     Cu( 1.00)
        Zr            12.00    91.22400     Zr( 1.00)

     No symmetry found


                                    s                        frac. trans.

      isym =  1     identity                                     

 cryst.   s( 1) = (     1          0          0      )
                  (     0          1          0      )
                  (     0          0          1      )

 cart.    s( 1) = (  1.0000000  0.0000000  0.0000000 )
                  (  0.0000000  1.0000000  0.0000000 )
                  (  0.0000000  0.0000000  1.0000000 )


   Cartesian axes

     site n.     atom                  positions (alat units)
         1           Cu  tau(   1) = (   0.2316465   0.2277590   0.1567850  )
         2           Zr  tau(   2) = (   0.3526465  -0.0190070   0.1788030  )
         3           Cu  tau(   3) = (   0.3457475   0.1315620   0.3373750  )
         4           Cu  tau(   4) = (   0.3997935   0.0611130   0.5913870  )
         5           Zr  tau(   5) = (   0.4157550   0.0327190   0.7957000  )
         6           Cu  tau(   6) = (   0.6317385   0.0656340   0.7428210  )
         7           Cu  tau(   7) = (   0.6108930   0.1023710   0.9862360  )
         8           Cu  tau(   8) = (   0.2837275   0.3549830   0.0459350  )
         9           Zr  tau(   9) = (   0.1400055   0.2717730   0.3065150  )
        10           Cu  tau(  10) = (   0.3869865   0.3285600   0.3368330  )
        11           Zr  tau(  11) = (   0.1973955   0.4699240   0.1643430  )
        12           Zr  tau(  12) = (   0.2786995   0.4952260   0.4343910  )
        13           Zr  tau(  13) = (   0.5417960   0.2523210   0.8065140  )
        14           Zr  tau(  14) = (   0.5082505   0.4605960   0.6620950  )
        15           Cu  tau(  15) = (   0.5793740   0.4794900   0.9306380  )
        16           Zr  tau(  16) = (   0.1265260   0.6997470   0.0172560  )
        17           Cu  tau(  17) = (   0.2871100   0.7324330   0.4191720  )
        18           Cu  tau(  18) = (   0.3662125   0.6651690   0.6132270  )
        19           Zr  tau(  19) = (   0.6187360   0.6737150   0.7857960  )
        20           Cu  tau(  20) = (   0.3947725   0.6101890   0.8077750  )
        21           Cu  tau(  21) = (   0.0310715   0.9211880  -0.0202190  )
        22           Cu  tau(  22) = (   0.2300280   0.8230530   0.2237520  )
        23           Zr  tau(  23) = (   0.3916755   0.9250130   0.4308390  )
        24           Cu  tau(  24) = (   0.4448915   0.8041300   0.7956290  )
        25           Cu  tau(  25) = (   0.5282235   0.8760390   0.6704530  )
        26           Zr  tau(  26) = (   0.4824115   0.2235980   0.2105170  )
        27           Cu  tau(  27) = (   0.6221535   0.0370620   0.2382310  )
        28           Cu  tau(  28) = (   0.5589455   0.0675060   0.3843810  )
        29           Zr  tau(  29) = (   0.5386765   0.2188980   0.5456370  )
        30           Cu  tau(  30) = (   0.7498370   0.2269500   0.7541460  )
        31           Zr  tau(  31) = (   0.9016515   0.0266550   0.8215010  )
        32           Zr  tau(  32) = (   0.8222160   0.1538590   0.9755560  )
        33           Zr  tau(  33) = (   0.5188400   0.4176720   0.0356180  )
        34           Al  tau(  34) = (   0.5144730   0.4541170   0.2506940  )
        35           Cu  tau(  35) = (   0.6360730   0.3295000   0.4181220  )
        36           Cu  tau(  36) = (   0.5086505   0.4786180   0.4547210  )
        37           Zr  tau(  37) = (   0.7581860   0.4213950   0.6301280  )
        38           Zr  tau(  38) = (   0.7573905   0.4543610   0.8486030  )
        39           Cu  tau(  39) = (   0.3532210   0.5456970   0.0742360  )
        40           Zr  tau(  40) = (   0.4065145   0.6436620   0.3018270  )
        41           Zr  tau(  41) = (   0.6983035   0.5775920   0.4392130  )
        42           Zr  tau(  42) = (   0.5574970   0.6952180   0.5536880  )
        43           Cu  tau(  43) = (   0.8009935   0.6339770   0.6937910  )
        44           Zr  tau(  44) = (   0.8997845   0.6894230   0.9390530  )
        45           Cu  tau(  45) = (   0.3757935   0.7658970   0.1068750  )
        46           Zr  tau(  46) = (   0.5028595   0.9323300   0.0524910  )
        47           Zr  tau(  47) = (   0.5843450   0.8280610   0.3415760  )
        48           Zr  tau(  48) = (   0.6849195   0.9679630   0.5853350  )
        49           Cu  tau(  49) = (   0.7780955   0.8197080   0.7561930  )
        50           Zr  tau(  50) = (   0.7048570   0.9077680   0.9111820  )
        51           Zr  tau(  51) = (   0.6205495   0.1641180   0.0496730  )
        52           Zr  tau(  52) = (   0.8747470   0.0797000   0.2343880  )
        53           Cu  tau(  53) = (   0.7242445   0.1728210   0.3663910  )
        54           Zr  tau(  54) = (   0.8352805   0.1819230   0.5991130  )
        55           Zr  tau(  55) = (   1.0936370   0.1353580   0.7999840  )
        56           Cu  tau(  56) = (   0.7615105   0.4938770   0.1236250  )
        57           Zr  tau(  57) = (   0.7458715   0.3496160   0.2608670  )
        58           Cu  tau(  58) = (   0.8613650   0.3829110   0.4899580  )
        59           Zr  tau(  59) = (   1.0780575   0.3425790   0.6748370  )
        60           Zr  tau(  60) = (   1.2100760   0.3575700   0.9376560  )
        61           Cu  tau(  61) = (   0.9510475   0.2943340   0.8319010  )
        62           Zr  tau(  62) = (   0.6120690   0.6602630   0.1802780  )
        63           Cu  tau(  63) = (   0.8520245   0.5422660   0.3511770  )
        64           Cu  tau(  64) = (   0.8424860   0.7490820   0.3811960  )
        65           Zr  tau(  65) = (   0.9783245   0.5790940   0.6194550  )
        66           Cu  tau(  66) = (   0.9816950   0.5080700   0.8178100  )
        67           Cu  tau(  67) = (   1.1491310   0.6087910   0.9696280  )
        68           Cu  tau(  68) = (   0.6597325   0.7910700   0.0288590  )
        69           Cu  tau(  69) = (   0.7569235   0.8868360   0.2400110  )
        70           Zr  tau(  70) = (   0.8502005   0.9759980   0.4397490  )
        71           Cu  tau(  71) = (   0.8192580   0.7794890   0.5795060  )
        72           Cu  tau(  72) = (   0.9504140   0.9611470   0.6522980  )
        73           Zr  tau(  73) = (   1.0193620   0.7657160   0.7858100  )
        74           Cu  tau(  74) = (   1.1546755   0.9527310   0.9360050  )
        75           Cu  tau(  75) = (   0.8629970   0.2687160   0.1298460  )
        76           Zr  tau(  76) = (   1.1057335   0.0294580   0.1891070  )
        77           Zr  tau(  77) = (   0.9824860   0.2250570   0.4300980  )
        78           Cu  tau(  78) = (   1.1882700   0.0880180   0.4356580  )
        79           Zr  tau(  79) = (   1.1242745   0.0724900   0.6018010  )
        80           Cu  tau(  80) = (   1.2934840   0.2197080   0.8001380  )
        81           Zr  tau(  81) = (   1.3574515   0.0849730   0.9774930  )
        82           Zr  tau(  82) = (   1.0157855   0.2941060   0.0350030  )
        83           Zr  tau(  83) = (   0.9876555   0.4609810   0.2520130  )
        84           Cu  tau(  84) = (   1.0528710   0.4350980   0.4791560  )
        85           Zr  tau(  85) = (   1.2884675   0.2752820   0.5806030  )
        86           Cu  tau(  86) = (   1.3844640   0.4038440   0.8175500  )
        87           Zr  tau(  87) = (   0.9257855   0.5484550   0.0248790  )
        88           Zr  tau(  88) = (   0.8711440   0.6984470   0.1916040  )
        89           Al  tau(  89) = (   1.1287550   0.6548750   0.2477300  )
        90           Zr  tau(  90) = (   1.0944020   0.6537190   0.4614320  )
        91           Cu  tau(  91) = (   1.2449575   0.4981350   0.6420570  )
        92           Cu  tau(  92) = (   1.1990050   0.7178360   0.7012020  )
        93           Cu  tau(  93) = (   1.1937905   0.5560280   0.8199790  )
        94           Cu  tau(  94) = (   1.0128560   0.8012760   0.1273720  )
        95           Cu  tau(  95) = (   0.8461300   0.9101280   0.1001260  )
        96           Zr  tau(  96) = (   1.0543940   0.8729030   0.3447760  )
        97           Zr  tau(  97) = (   1.2683470   0.8735870   0.5854800  )
        98           Cu  tau(  98) = (   1.0299245   0.8240090   0.5722210  )
        99           Cu  tau(  99) = (   1.1843475   0.9168100   0.7614030  )
       100           Zr  tau( 100) = (   1.3151625   0.7776480   0.9154230  )

   Crystallographic axes

     site n.     atom                  positions (cryst. coord.)
         1           Cu  tau(   1) = (  0.1532540  0.2277590  0.1567850  )
         2           Zr  tau(   2) = (  0.2632450 -0.0190070  0.1788030  )
         3           Cu  tau(   3) = (  0.1770600  0.1315620  0.3373750  )
         4           Cu  tau(   4) = (  0.1041000  0.0611130  0.5913870  )
         5           Zr  tau(   5) = (  0.0179050  0.0327190  0.7957000  )
         6           Cu  tau(   6) = (  0.2603280  0.0656340  0.7428210  )
         7           Cu  tau(   7) = (  0.1177750  0.1023710  0.9862360  )
         8           Cu  tau(   8) = (  0.2607600  0.3549830  0.0459350  )
         9           Zr  tau(   9) = ( -0.0132520  0.2717730  0.3065150  )
        10           Cu  tau(  10) = (  0.2185700  0.3285600  0.3368330  )
        11           Zr  tau(  11) = (  0.1152240  0.4699240  0.1643430  )
        12           Zr  tau(  12) = (  0.0615040  0.4952260  0.4343910  )
        13           Zr  tau(  13) = (  0.1385390  0.2523210  0.8065140  )
        14           Zr  tau(  14) = (  0.1772030  0.4605960  0.6620950  )
        15           Cu  tau(  15) = (  0.1140550  0.4794900  0.9306380  )
        16           Zr  tau(  16) = (  0.1178980  0.6997470  0.0172560  )
        17           Cu  tau(  17) = (  0.0775240  0.7324330  0.4191720  )
        18           Cu  tau(  18) = (  0.0595990  0.6651690  0.6132270  )
        19           Zr  tau(  19) = (  0.2258380  0.6737150  0.7857960  )
        20           Cu  tau(  20) = ( -0.0091150  0.6101890  0.8077750  )
        21           Cu  tau(  21) = (  0.0411810  0.9211880 -0.0202190  )
        22           Cu  tau(  22) = (  0.1181520  0.8230530  0.2237520  )
        23           Zr  tau(  23) = (  0.1762560  0.9250130  0.4308390  )
        24           Cu  tau(  24) = (  0.0470770  0.8041300  0.7956290  )
        25           Cu  tau(  25) = (  0.1929970  0.8760390  0.6704530  )
        26           Zr  tau(  26) = (  0.3771530  0.2235980  0.2105170  )
        27           Cu  tau(  27) = (  0.5030380  0.0370620  0.2382310  )
        28           Cu  tau(  28) = (  0.3667550  0.0675060  0.3843810  )
        29           Zr  tau(  29) = (  0.2658580  0.2188980  0.5456370  )
        30           Cu  tau(  30) = (  0.3727640  0.2269500  0.7541460  )
        31           Zr  tau(  31) = (  0.4909010  0.0266550  0.8215010  )
        32           Zr  tau(  32) = (  0.3344380  0.1538590  0.9755560  )
        33           Zr  tau(  33) = (  0.5010310  0.4176720  0.0356180  )
        34           Al  tau(  34) = (  0.3891260  0.4541170  0.2506940  )
        35           Cu  tau(  35) = (  0.4270120  0.3295000  0.4181220  )
        36           Cu  tau(  36) = (  0.2812900  0.4786180  0.4547210  )
        37           Zr  tau(  37) = (  0.4431220  0.4213950  0.6301280  )
        38           Zr  tau(  38) = (  0.3330890  0.4543610  0.8486030  )
        39           Cu  tau(  39) = (  0.3161030  0.5456970  0.0742360  )
        40           Zr  tau(  40) = (  0.2556010  0.6436620  0.3018270  )
        41           Zr  tau(  41) = (  0.4786970  0.5775920  0.4392130  )
        42           Zr  tau(  42) = (  0.2806530  0.6952180  0.5536880  )
        43           Cu  tau(  43) = (  0.4540980  0.6339770  0.6937910  )
        44           Zr  tau(  44) = (  0.4302580  0.6894230  0.9390530  )
        45           Cu  tau(  45) = (  0.3223560  0.7658970  0.1068750  )
        46           Zr  tau(  46) = (  0.4766140  0.9323300  0.0524910  )
        47           Zr  tau(  47) = (  0.4135570  0.8280610  0.3415760  )
        48           Zr  tau(  48) = (  0.3922520  0.9679630  0.5853350  )
        49           Cu  tau(  49) = (  0.3999990  0.8197080  0.7561930  )
        50           Zr  tau(  50) = (  0.2492660  0.9077680  0.9111820  )
        51           Zr  tau(  51) = (  0.5957130  0.1641180  0.0496730  )
        52           Zr  tau(  52) = (  0.7575530  0.0797000  0.2343880  )
        53           Cu  tau(  53) = (  0.5410490  0.1728210  0.3663910  )
        54           Zr  tau(  54) = (  0.5357240  0.1819230  0.5991130  )
        55           Zr  tau(  55) = (  0.6936450  0.1353580  0.7999840  )
        56           Cu  tau(  56) = (  0.6996980  0.4938770  0.1236250  )
        57           Zr  tau(  57) = (  0.6154380  0.3496160  0.2608670  )
        58           Cu  tau(  58) = (  0.6163860  0.3829110  0.4899580  )
        59           Zr  tau(  59) = (  0.7406390  0.3425790  0.6748370  )
        60           Zr  tau(  60) = (  0.7412480  0.3575700  0.9376560  )
        61           Cu  tau(  61) = (  0.5350970  0.2943340  0.8319010  )
        62           Zr  tau(  62) = (  0.5219300  0.6602630  0.1802780  )
        63           Cu  tau(  63) = (  0.6764360  0.5422660  0.3511770  )
        64           Cu  tau(  64) = (  0.6518880  0.7490820  0.3811960  )
        65           Zr  tau(  65) = (  0.6685970  0.5790940  0.6194550  )
        66           Cu  tau(  66) = (  0.5727900  0.5080700  0.8178100  )
        67           Cu  tau(  67) = (  0.6643170  0.6087910  0.9696280  )
        68           Cu  tau(  68) = (  0.6453030  0.7910700  0.0288590  )
        69           Cu  tau(  69) = (  0.6369180  0.8868360  0.2400110  )
        70           Zr  tau(  70) = (  0.6303260  0.9759980  0.4397490  )
        71           Cu  tau(  71) = (  0.5295050  0.7794890  0.5795060  )
        72           Cu  tau(  72) = (  0.6242650  0.9611470  0.6522980  )
        73           Zr  tau(  73) = (  0.6264570  0.7657160  0.7858100  )
        74           Cu  tau(  74) = (  0.6866730  0.9527310  0.9360050  )
        75           Cu  tau(  75) = (  0.7980740  0.2687160  0.1298460  )
        76           Zr  tau(  76) = (  1.0111800  0.0294580  0.1891070  )
        77           Zr  tau(  77) = (  0.7674370  0.2250570  0.4300980  )
        78           Cu  tau(  78) = (  0.9704410  0.0880180  0.4356580  )
        79           Zr  tau(  79) = (  0.8233740  0.0724900  0.6018010  )
        80           Cu  tau(  80) = (  0.8934150  0.2197080  0.8001380  )
        81           Zr  tau(  81) = (  0.8687050  0.0849730  0.9774930  )
        82           Zr  tau(  82) = (  0.9982840  0.2941060  0.0350030  )
        83           Zr  tau(  83) = (  0.8616490  0.4609810  0.2520130  )
        84           Cu  tau(  84) = (  0.8132930  0.4350980  0.4791560  )
        85           Zr  tau(  85) = (  0.9981660  0.2752820  0.5806030  )
        86           Cu  tau(  86) = (  0.9756890  0.4038440  0.8175500  )
        87           Zr  tau(  87) = (  0.9133460  0.5484550  0.0248790  )
        88           Zr  tau(  88) = (  0.7753420  0.6984470  0.1916040  )
        89           Al  tau(  89) = (  1.0048900  0.6548750  0.2477300  )
        90           Zr  tau(  90) = (  0.8636860  0.6537190  0.4614320  )
        91           Cu  tau(  91) = (  0.9239290  0.4981350  0.6420570  )
        92           Cu  tau(  92) = (  0.8484040  0.7178360  0.7012020  )
        93           Cu  tau(  93) = (  0.7838010  0.5560280  0.8199790  )
        94           Cu  tau(  94) = (  0.9491700  0.8012760  0.1273720  )
        95           Cu  tau(  95) = (  0.7960670  0.9101280  0.1001260  )
        96           Zr  tau(  96) = (  0.8820060  0.8729030  0.3447760  )
        97           Zr  tau(  97) = (  0.9756070  0.8735870  0.5854800  )
        98           Cu  tau(  98) = (  0.7438140  0.8240090  0.5722210  )
        99           Cu  tau(  99) = (  0.8036460  0.9168100  0.7614030  )
       100           Zr  tau( 100) = (  0.8574510  0.7776480  0.9154230  )

     number of k points=     8  Fermi-Dirac smearing, width (Ry)=  0.0080
                       cart. coord. in units 2pi/alat
        k(    1) = (   0.2500000   0.2500000   0.1250000), wk =   0.2500000
        k(    2) = (   0.2500000   0.2500000  -0.3750000), wk =   0.2500000
        k(    3) = (   0.2500000  -0.2500000   0.1250000), wk =   0.2500000
        k(    4) = (   0.2500000  -0.2500000  -0.3750000), wk =   0.2500000
        k(    5) = (  -0.2500000   0.2500000   0.3750000), wk =   0.2500000
        k(    6) = (  -0.2500000   0.2500000  -0.1250000), wk =   0.2500000
        k(    7) = (  -0.2500000  -0.2500000   0.3750000), wk =   0.2500000
        k(    8) = (  -0.2500000  -0.2500000  -0.1250000), wk =   0.2500000

                       cryst. coord.
        k(    1) = (   0.2500000   0.2500000   0.2500000), wk =   0.2500000
        k(    2) = (   0.2500000   0.2500000  -0.2500000), wk =   0.2500000
        k(    3) = (   0.2500000  -0.2500000   0.2500000), wk =   0.2500000
        k(    4) = (   0.2500000  -0.2500000  -0.2500000), wk =   0.2500000
        k(    5) = (  -0.2500000   0.2500000   0.2500000), wk =   0.2500000
        k(    6) = (  -0.2500000   0.2500000  -0.2500000), wk =   0.2500000
        k(    7) = (  -0.2500000  -0.2500000   0.2500000), wk =   0.2500000
        k(    8) = (  -0.2500000  -0.2500000  -0.2500000), wk =   0.2500000

     Dense  grid:  2628049 G-vectors     FFT dimensions: ( 180, 180, 192)

     Smooth grid:   929093 G-vectors     FFT dimensions: ( 125, 125, 135)

     Dynamical RAM for                 wfc:      80.19 MB

     Dynamical RAM for     wfc (w. buffer):      80.19 MB

     Dynamical RAM for           str. fact:       5.01 MB

     Dynamical RAM for           local pot:       0.00 MB

     Dynamical RAM for          nlocal pot:     131.43 MB

     Dynamical RAM for                qrad:      20.58 MB

     Dynamical RAM for          rho,v,vnew:      10.95 MB

     Dynamical RAM for               rhoin:       3.65 MB

     Dynamical RAM for            rho*nmix:      26.73 MB

     Dynamical RAM for           G-vectors:       6.56 MB

     Dynamical RAM for          h,s,v(r/c):      95.98 MB

     Dynamical RAM for          <psi|beta>:      29.50 MB

     Dynamical RAM for                 psi:     320.75 MB

     Dynamical RAM for                hpsi:     320.75 MB

     Dynamical RAM for                spsi:     320.75 MB

     Dynamical RAM for      wfcinit/wfcrot:     197.10 MB

     Dynamical RAM for           addusdens:     392.65 MB

     Dynamical RAM for          addusforce:     809.93 MB

     Estimated static dynamical RAM per process >     301.67 MB

     Estimated max dynamical RAM per process >       1.36 GB

     Estimated total dynamical RAM >     260.51 GB

     Initial potential from superposition of free atoms

     starting charge 1524.87645, renormalised to 1525.00000
     Starting wfc are 1135 randomized atomic wfcs
     Checking if some PAW data can be deallocated... 
       PAW data deallocated on  188 nodes for type:  1
       PAW data deallocated on   99 nodes for type:  2
       PAW data deallocated on   97 nodes for type:  3

     total cpu time spent up to now is       40.1 secs

     Self-consistent Calculation

     iteration #  1     ecut=    70.00 Ry     beta= 0.40
     Davidson diagonalization with overlap
     ethr =  1.00E-02,  avg # of iterations =  4.0

     total cpu time spent up to now is      255.0 secs

     total energy              =  -38849.68212903 Ry
     Harris-Foulkes estimate   =  -38998.05802314 Ry
     estimated scf accuracy    <     240.91820030 Ry

     iteration #  2     ecut=    70.00 Ry     beta= 0.40
     Davidson diagonalization with overlap
     ethr =  1.00E-02,  avg # of iterations =  3.0

     total cpu time spent up to now is      485.0 secs

     total energy              =  -38878.81678098 Ry
     Harris-Foulkes estimate   =  -39168.04256724 Ry
     estimated scf accuracy    <    1473.67412120 Ry

     iteration #  3     ecut=    70.00 Ry     beta= 0.40
     Davidson diagonalization with overlap
     ethr =  1.00E-02,  avg # of iterations =  3.0

     total cpu time spent up to now is      660.9 secs

     total energy              =  -38940.36630809 Ry
     Harris-Foulkes estimate   =  -39053.14699000 Ry
     estimated scf accuracy    <     957.71369874 Ry

     iteration #  4     ecut=    70.00 Ry     beta= 0.40
     Davidson diagonalization with overlap
     ethr =  1.00E-02,  avg # of iterations =  3.0

     total cpu time spent up to now is      795.5 secs

     total energy              =  -38985.14688511 Ry
     Harris-Foulkes estimate   =  -39009.25678012 Ry
     estimated scf accuracy    <     173.73564997 Ry

     iteration #  5     ecut=    70.00 Ry     beta= 0.40
     Davidson diagonalization with overlap
     ethr =  1.00E-02,  avg # of iterations =  1.0

     total cpu time spent up to now is      896.5 secs

     total energy              =  -38988.19779690 Ry
     Harris-Foulkes estimate   =  -38997.57666929 Ry
     estimated scf accuracy    <      98.53299596 Ry

     iteration #  6     ecut=    70.00 Ry     beta= 0.40
     Davidson diagonalization with overlap
     ethr =  6.46E-03,  avg # of iterations =  1.0

     total cpu time spent up to now is      997.7 secs

     total energy              =  -38988.87976372 Ry
     Harris-Foulkes estimate   =  -38992.84409593 Ry
     estimated scf accuracy    <      56.91552736 Ry

     iteration #  7     ecut=    70.00 Ry     beta= 0.40
     Davidson diagonalization with overlap
     ethr =  3.73E-03,  avg # of iterations =  1.0

     total cpu time spent up to now is     1099.1 secs

     total energy              =  -38987.95507062 Ry
     Harris-Foulkes estimate   =  -38990.19887907 Ry
     estimated scf accuracy    <      31.38096423 Ry

     iteration #  8     ecut=    70.00 Ry     beta= 0.40
     Davidson diagonalization with overlap
     ethr =  2.06E-03,  avg # of iterations =  1.0

     total cpu time spent up to now is     1200.1 secs

     total energy              =  -38986.24035646 Ry
     Harris-Foulkes estimate   =  -38988.79430212 Ry
     estimated scf accuracy    <      28.20592809 Ry

     iteration #  9     ecut=    70.00 Ry     beta= 0.40
     Davidson diagonalization with overlap
     ethr =  1.85E-03,  avg # of iterations =  1.0

     total cpu time spent up to now is     1301.3 secs

     total energy              =  -38985.81434146 Ry
     Harris-Foulkes estimate   =  -38987.05448168 Ry
     estimated scf accuracy    <       9.67583093 Ry

     iteration # 10     ecut=    70.00 Ry     beta= 0.40
     Davidson diagonalization with overlap
     ethr =  6.34E-04,  avg # of iterations =  1.8

     total cpu time spent up to now is     1423.2 secs

     total energy              =  -38984.96007153 Ry
     Harris-Foulkes estimate   =  -38986.31080163 Ry
     estimated scf accuracy    <       5.05437910 Ry

     iteration # 11     ecut=    70.00 Ry     beta= 0.40
     Davidson diagonalization with overlap
     ethr =  3.31E-04,  avg # of iterations =  4.6

     total cpu time spent up to now is     1589.7 secs

     total energy              =  -38984.63964907 Ry
     Harris-Foulkes estimate   =  -38986.78298853 Ry
     estimated scf accuracy    <      21.27081245 Ry

     iteration # 12     ecut=    70.00 Ry     beta= 0.40
     Davidson diagonalization with overlap
     ethr =  3.31E-04,  avg # of iterations =  2.0

     total cpu time spent up to now is     1704.9 secs

     total energy              =  -38985.59049996 Ry
     Harris-Foulkes estimate   =  -38986.12443672 Ry
     estimated scf accuracy    <       2.78808991 Ry

     iteration # 13     ecut=    70.00 Ry     beta= 0.40
     Davidson diagonalization with overlap
     ethr =  1.83E-04,  avg # of iterations =  3.8

     total cpu time spent up to now is     1871.7 secs

     total energy              =  -38985.61670115 Ry
     Harris-Foulkes estimate   =  -38986.17474723 Ry
     estimated scf accuracy    <       6.76873575 Ry

     iteration # 14     ecut=    70.00 Ry     beta= 0.40
     Davidson diagonalization with overlap
     ethr =  1.83E-04,  avg # of iterations =  2.1

     total cpu time spent up to now is     1993.5 secs

     total energy              =  -38985.84993575 Ry
     Harris-Foulkes estimate   =  -38985.94200535 Ry
     estimated scf accuracy    <       0.91291830 Ry

     iteration # 15     ecut=    70.00 Ry     beta= 0.40
     Davidson diagonalization with overlap
     ethr =  5.99E-05,  avg # of iterations =  2.4

     total cpu time spent up to now is     2114.1 secs

     total energy              =  -38985.87070625 Ry
     Harris-Foulkes estimate   =  -38985.93384724 Ry
     estimated scf accuracy    <       0.88850075 Ry

     iteration # 16     ecut=    70.00 Ry     beta= 0.40
     Davidson diagonalization with overlap
     ethr =  5.83E-05,  avg # of iterations =  1.0

     total cpu time spent up to now is     2215.0 secs

     total energy              =  -38985.89254669 Ry
     Harris-Foulkes estimate   =  -38985.91212433 Ry
     estimated scf accuracy    <       0.21706254 Ry

     iteration # 17     ecut=    70.00 Ry     beta= 0.40
     Davidson diagonalization with overlap
     ethr =  1.42E-05,  avg # of iterations =  5.8

     total cpu time spent up to now is     2389.2 secs

     total energy              =  -38985.88342736 Ry
     Harris-Foulkes estimate   =  -38985.91864328 Ry
     estimated scf accuracy    <       0.48591477 Ry

     iteration # 18     ecut=    70.00 Ry     beta= 0.40
     Davidson diagonalization with overlap
     ethr =  1.42E-05,  avg # of iterations =  1.5

     total cpu time spent up to now is     2500.2 secs

     total energy              =  -38985.89558830 Ry
     Harris-Foulkes estimate   =  -38985.90459061 Ry
     estimated scf accuracy    <       0.08184462 Ry

     iteration # 19     ecut=    70.00 Ry     beta= 0.40
     Davidson diagonalization with overlap
     ethr =  5.37E-06,  avg # of iterations =  4.5

     total cpu time spent up to now is     2670.7 secs

     total energy              =  -38985.89499168 Ry
     Harris-Foulkes estimate   =  -38985.90318698 Ry
     estimated scf accuracy    <       0.10566025 Ry

     iteration # 20     ecut=    70.00 Ry     beta= 0.40
     Davidson diagonalization with overlap
     ethr =  5.37E-06,  avg # of iterations =  1.9

     total cpu time spent up to now is     2789.3 secs

     total energy              =  -38985.89502804 Ry
     Harris-Foulkes estimate   =  -38985.90115903 Ry
     estimated scf accuracy    <       0.03410927 Ry

     iteration # 21     ecut=    70.00 Ry     beta= 0.40
     Davidson diagonalization with overlap
     ethr =  2.24E-06,  avg # of iterations =  5.0

     total cpu time spent up to now is     2952.5 secs

     total energy              =  -38985.88828563 Ry
     Harris-Foulkes estimate   =  -38985.90893230 Ry
     estimated scf accuracy    <       0.23088047 Ry

     iteration # 22     ecut=    70.00 Ry     beta= 0.40
     Davidson diagonalization with overlap
     ethr =  2.24E-06,  avg # of iterations =  4.8

     total cpu time spent up to now is     3114.9 secs

     total energy              =  -38985.89577299 Ry
     Harris-Foulkes estimate   =  -38985.90229290 Ry
     estimated scf accuracy    <       0.06851082 Ry

     iteration # 23     ecut=    70.00 Ry     beta= 0.40
     Davidson diagonalization with overlap
     ethr =  2.24E-06,  avg # of iterations =  2.0

     total cpu time spent up to now is     3226.7 secs

     total energy              =  -38985.89786688 Ry
     Harris-Foulkes estimate   =  -38985.90021521 Ry
     estimated scf accuracy    <       0.01759360 Ry

     iteration # 24     ecut=    70.00 Ry     beta= 0.40
     Davidson diagonalization with overlap
     ethr =  1.15E-06,  avg # of iterations =  2.0

     total cpu time spent up to now is     3337.6 secs

     total energy              =  -38985.89717403 Ry
     Harris-Foulkes estimate   =  -38985.90102498 Ry
     estimated scf accuracy    <       0.04740290 Ry

     iteration # 25     ecut=    70.00 Ry     beta= 0.40
     Davidson diagonalization with overlap
     ethr =  1.15E-06,  avg # of iterations =  1.8

     total cpu time spent up to now is     3447.9 secs

     total energy              =  -38985.89741446 Ry
     Harris-Foulkes estimate   =  -38985.90072775 Ry
     estimated scf accuracy    <       0.04299767 Ry

     iteration # 26     ecut=    70.00 Ry     beta= 0.40
     Davidson diagonalization with overlap
     ethr =  1.15E-06,  avg # of iterations =  1.0

     total cpu time spent up to now is     3548.5 secs

     total energy              =  -38985.89810147 Ry
     Harris-Foulkes estimate   =  -38985.90042787 Ry
     estimated scf accuracy    <       0.02574658 Ry

     iteration # 27     ecut=    70.00 Ry     beta= 0.40
     Davidson diagonalization with overlap
     ethr =  1.15E-06,  avg # of iterations =  1.0

     total cpu time spent up to now is     3649.1 secs

     total energy              =  -38985.89897927 Ry
     Harris-Foulkes estimate   =  -38985.89958832 Ry
     estimated scf accuracy    <       0.00785812 Ry

     iteration # 28     ecut=    70.00 Ry     beta= 0.40
     Davidson diagonalization with overlap
     ethr =  5.15E-07,  avg # of iterations =  1.0

     total cpu time spent up to now is     3749.8 secs

     total energy              =  -38985.89921027 Ry
     Harris-Foulkes estimate   =  -38985.89942165 Ry
     estimated scf accuracy    <       0.00226214 Ry

     iteration # 29     ecut=    70.00 Ry     beta= 0.40
     Davidson diagonalization with overlap
     ethr =  1.48E-07,  avg # of iterations =  1.0

     total cpu time spent up to now is     3850.5 secs

     total energy              =  -38985.89921966 Ry
     Harris-Foulkes estimate   =  -38985.89941559 Ry
     estimated scf accuracy    <       0.00216698 Ry

     iteration # 30     ecut=    70.00 Ry     beta= 0.40
     Davidson diagonalization with overlap
     ethr =  1.42E-07,  avg # of iterations =  1.0

     total cpu time spent up to now is     3951.5 secs

     total energy              =  -38985.89928841 Ry
     Harris-Foulkes estimate   =  -38985.89936885 Ry
     estimated scf accuracy    <       0.00087658 Ry

     iteration # 31     ecut=    70.00 Ry     beta= 0.40
     Davidson diagonalization with overlap
     ethr =  5.75E-08,  avg # of iterations =  1.0

     total cpu time spent up to now is     4052.5 secs

     total energy              =  -38985.89927852 Ry
     Harris-Foulkes estimate   =  -38985.89938098 Ry
     estimated scf accuracy    <       0.00106058 Ry

     iteration # 32     ecut=    70.00 Ry     beta= 0.40
     Davidson diagonalization with overlap
     ethr =  5.75E-08,  avg # of iterations =  1.0

     total cpu time spent up to now is     4153.1 secs

     total energy              =  -38985.89930330 Ry
     Harris-Foulkes estimate   =  -38985.89937104 Ry
     estimated scf accuracy    <       0.00077628 Ry

     iteration # 33     ecut=    70.00 Ry     beta= 0.40
     Davidson diagonalization with overlap
     ethr =  5.09E-08,  avg # of iterations =  1.0

     total cpu time spent up to now is     4253.7 secs

     total energy              =  -38985.89932180 Ry
     Harris-Foulkes estimate   =  -38985.89935568 Ry
     estimated scf accuracy    <       0.00032730 Ry

     iteration # 34     ecut=    70.00 Ry     beta= 0.40
     Davidson diagonalization with overlap
     ethr =  2.15E-08,  avg # of iterations =  1.0

     total cpu time spent up to now is     4354.3 secs

     total energy              =  -38985.89932828 Ry
     Harris-Foulkes estimate   =  -38985.89935118 Ry
     estimated scf accuracy    <       0.00023767 Ry

     iteration # 35     ecut=    70.00 Ry     beta= 0.40
     Davidson diagonalization with overlap
     ethr =  1.56E-08,  avg # of iterations =  1.0

     total cpu time spent up to now is     4454.9 secs

     total energy              =  -38985.89932032 Ry
     Harris-Foulkes estimate   =  -38985.89936127 Ry
     estimated scf accuracy    <       0.00055189 Ry

     iteration # 36     ecut=    70.00 Ry     beta= 0.40
     Davidson diagonalization with overlap
     ethr =  1.56E-08,  avg # of iterations =  1.0

     total cpu time spent up to now is     4555.3 secs

     total energy              =  -38985.89931967 Ry
     Harris-Foulkes estimate   =  -38985.89936344 Ry
     estimated scf accuracy    <       0.00054793 Ry

     iteration # 37     ecut=    70.00 Ry     beta= 0.40
     Davidson diagonalization with overlap
     ethr =  1.56E-08,  avg # of iterations =  1.0

     total cpu time spent up to now is     4656.2 secs

     total energy              =  -38985.89932813 Ry
     Harris-Foulkes estimate   =  -38985.89935617 Ry
     estimated scf accuracy    <       0.00038464 Ry

     iteration # 38     ecut=    70.00 Ry     beta= 0.40
     Davidson diagonalization with overlap
     ethr =  1.56E-08,  avg # of iterations =  1.0

     total cpu time spent up to now is     4756.6 secs

     total energy              =  -38985.89933881 Ry
     Harris-Foulkes estimate   =  -38985.89934860 Ry
     estimated scf accuracy    <       0.00011671 Ry

     iteration # 39     ecut=    70.00 Ry     beta= 0.40
     Davidson diagonalization with overlap
     ethr =  7.65E-09,  avg # of iterations =  1.0

     total cpu time spent up to now is     4857.2 secs

     total energy              =  -38985.89933992 Ry
     Harris-Foulkes estimate   =  -38985.89934727 Ry
     estimated scf accuracy    <       0.00008411 Ry

     iteration # 40     ecut=    70.00 Ry     beta= 0.40
     Davidson diagonalization with overlap
     ethr =  5.52E-09,  avg # of iterations =  1.0

     total cpu time spent up to now is     4957.8 secs

     total energy              =  -38985.89934127 Ry
     Harris-Foulkes estimate   =  -38985.89934696 Ry
     estimated scf accuracy    <       0.00006973 Ry

     iteration # 41     ecut=    70.00 Ry     beta= 0.40
     Davidson diagonalization with overlap
     ethr =  4.57E-09,  avg # of iterations =  1.0

     total cpu time spent up to now is     5058.3 secs

     total energy              =  -38985.89934251 Ry
     Harris-Foulkes estimate   =  -38985.89934631 Ry
     estimated scf accuracy    <       0.00004827 Ry

     iteration # 42     ecut=    70.00 Ry     beta= 0.40
     Davidson diagonalization with overlap
     ethr =  3.16E-09,  avg # of iterations =  1.0

     total cpu time spent up to now is     5159.2 secs

     total energy              =  -38985.89934353 Ry
     Harris-Foulkes estimate   =  -38985.89934577 Ry
     estimated scf accuracy    <       0.00002384 Ry

     iteration # 43     ecut=    70.00 Ry     beta= 0.40
     Davidson diagonalization with overlap
     ethr =  1.56E-09,  avg # of iterations =  1.0

     total cpu time spent up to now is     5260.2 secs

     total energy              =  -38985.89934396 Ry
     Harris-Foulkes estimate   =  -38985.89934558 Ry
     estimated scf accuracy    <       0.00001799 Ry

     iteration # 44     ecut=    70.00 Ry     beta= 0.40
     Davidson diagonalization with overlap
     ethr =  1.18E-09,  avg # of iterations =  1.0

     total cpu time spent up to now is     5360.6 secs

     total energy              =  -38985.89934447 Ry
     Harris-Foulkes estimate   =  -38985.89934529 Ry
     estimated scf accuracy    <       0.00000887 Ry

     iteration # 45     ecut=    70.00 Ry     beta= 0.40
     Davidson diagonalization with overlap
     ethr =  5.81E-10,  avg # of iterations =  1.0

     total cpu time spent up to now is     5461.0 secs

     total energy              =  -38985.89934457 Ry
     Harris-Foulkes estimate   =  -38985.89934547 Ry
     estimated scf accuracy    <       0.00001261 Ry

     iteration # 46     ecut=    70.00 Ry     beta= 0.40
     Davidson diagonalization with overlap
     ethr =  5.81E-10,  avg # of iterations =  1.0

     total cpu time spent up to now is     5561.8 secs

     total energy              =  -38985.89934468 Ry
     Harris-Foulkes estimate   =  -38985.89934539 Ry
     estimated scf accuracy    <       0.00000649 Ry

     iteration # 47     ecut=    70.00 Ry     beta= 0.40
     Davidson diagonalization with overlap
     ethr =  4.25E-10,  avg # of iterations =  1.0

     total cpu time spent up to now is     5662.0 secs

     total energy              =  -38985.89934433 Ry
     Harris-Foulkes estimate   =  -38985.89934571 Ry
     estimated scf accuracy    <       0.00001710 Ry

     iteration # 48     ecut=    70.00 Ry     beta= 0.40
     Davidson diagonalization with overlap
     ethr =  4.25E-10,  avg # of iterations =  1.0

     total cpu time spent up to now is     5762.4 secs

     total energy              =  -38985.89934466 Ry
     Harris-Foulkes estimate   =  -38985.89934553 Ry
     estimated scf accuracy    <       0.00001197 Ry

     iteration # 49     ecut=    70.00 Ry     beta= 0.40
     Davidson diagonalization with overlap
     ethr =  4.25E-10,  avg # of iterations =  1.0

     total cpu time spent up to now is     5863.4 secs

     total energy              =  -38985.89934496 Ry
     Harris-Foulkes estimate   =  -38985.89934527 Ry
     estimated scf accuracy    <       0.00000403 Ry

     iteration # 50     ecut=    70.00 Ry     beta= 0.40
     Davidson diagonalization with overlap
     ethr =  2.64E-10,  avg # of iterations =  1.0

     total cpu time spent up to now is     5963.8 secs

     total energy              =  -38985.89934497 Ry
     Harris-Foulkes estimate   =  -38985.89934530 Ry
     estimated scf accuracy    <       0.00000385 Ry

     iteration # 51     ecut=    70.00 Ry     beta= 0.40
     Davidson diagonalization with overlap
     ethr =  2.52E-10,  avg # of iterations =  1.0

     total cpu time spent up to now is     6064.0 secs

     total energy              =  -38985.89934505 Ry
     Harris-Foulkes estimate   =  -38985.89934527 Ry
     estimated scf accuracy    <       0.00000316 Ry

     iteration # 52     ecut=    70.00 Ry     beta= 0.40
     Davidson diagonalization with overlap
     ethr =  2.07E-10,  avg # of iterations =  1.0

     total cpu time spent up to now is     6164.4 secs

     total energy              =  -38985.89934512 Ry
     Harris-Foulkes estimate   =  -38985.89934522 Ry
     estimated scf accuracy    <       0.00000101 Ry

     iteration # 53     ecut=    70.00 Ry     beta= 0.40
     Davidson diagonalization with overlap
     ethr =  6.65E-11,  avg # of iterations =  1.0

     total cpu time spent up to now is     6264.8 secs

     total energy              =  -38985.89934513 Ry
     Harris-Foulkes estimate   =  -38985.89934523 Ry
     estimated scf accuracy    <       0.00000135 Ry

     iteration # 54     ecut=    70.00 Ry     beta= 0.40
     Davidson diagonalization with overlap
     ethr =  6.65E-11,  avg # of iterations =  1.0

     total cpu time spent up to now is     6365.4 secs

     End of self-consistent calculation

          k = 0.2500 0.2500 0.1250 (116137 PWs)   bands (ev):

   -99.3305 -99.2599 -99.2373 -99.2200 -99.0670 -98.9432 -98.9288 -98.9125
   -98.8881 -98.8851 -98.8195 -98.8094 -98.7828 -98.7774 -98.7646 -98.7605
   -98.6982 -98.6470 -98.6427 -98.6402 -98.6234 -98.6120 -98.5847 -98.5787
   -98.5346 -98.5134 -98.5039 -98.4886 -98.4670 -98.4636 -98.4540 -98.4333
   -98.4285 -98.3856 -98.3761 -98.3577 -98.3509 -98.3256 -98.3130 -98.3073
   -98.3010 -98.2816 -98.2776 -98.2749 -98.2001 -98.1628 -98.1291 -98.0290
   -98.0225 -57.0962 -56.9311 -56.8817 -56.8018 -56.7992 -56.5989 -56.5897
   -56.5642 -56.5324 -56.5228 -56.4646 -56.4505 -56.4455 -56.4318 -56.4279
   -56.4172 -56.4106 -56.3978 -56.3781 -56.3742 -56.3662 -56.3349 -56.3173
   -56.3137 -56.3060 -56.2649 -56.2309 -56.2303 -56.2190 -56.2153 -56.2091
   -56.2020 -56.1972 -56.1809 -56.1793 -56.1505 -56.1502 -56.1450 -56.1136
   -56.1050 -56.0991 -56.0928 -56.0803 -56.0772 -56.0690 -56.0662 -56.0646
   -56.0591 -56.0580 -56.0529 -56.0367 -56.0067 -56.0000 -55.9925 -55.9780
   -55.9778 -55.9758 -55.9645 -55.9606 -55.9591 -55.9452 -55.9432 -55.9430
   -55.9334 -55.9235 -55.9217 -55.9180 -55.9165 -55.9084 -55.8917 -55.8833
   -55.8802 -55.8781 -55.8682 -55.8576 -55.8554 -55.8460 -55.8457 -55.8445
   -55.8433 -55.8311 -55.8273 -55.8266 -55.8185 -55.8172 -55.8150 -55.8131
   -55.8088 -55.8054 -55.7991 -55.7937 -55.7922 -55.7814 -55.7689 -55.7687
   -55.7682 -55.7658 -55.7654 -55.7620 -55.7497 -55.7467 -55.7439 -55.7379
   -55.7340 -55.7176 -55.7170 -55.7091 -55.7027 -55.7001 -55.6971 -55.6898
   -55.6750 -55.6671 -55.6643 -55.6601 -55.6555 -55.6511 -55.6483 -55.6428
   -55.6374 -55.6285 -55.6254 -55.6232 -55.6213 -55.6104 -55.6014 -55.5926
   -55.5879 -55.5643 -55.5599 -55.5567 -55.5460 -55.5320 -55.5111 -55.5076
   -55.5046 -55.4755 -55.4746 -55.4615 -55.4204 -55.4195 -55.3942 -55.3831
   -55.3639 -55.3364 -55.3080 -55.2940 -34.2940 -34.2350 -34.2101 -34.1424
   -34.1335 -34.1259 -34.0989 -34.0824 -34.0808 -34.0702 -34.0658 -34.0588
   -34.0536 -34.0468 -34.0377 -34.0339 -34.0306 -34.0255 -34.0202 -33.9880
   -33.9777 -33.9674 -33.9564 -33.9214 -33.8893 -33.8701 -33.8659 -33.8646
   -33.8529 -33.8363 -33.8339 -33.8280 -33.8205 -33.8164 -33.8031 -33.7853
   -33.7812 -33.7764 -33.7529 -33.7316 -33.7066 -33.6627 -33.6560 -33.6547
   -33.6392 -33.6221 -33.4629 -33.4567 -33.4483 -13.2427 -13.2331 -13.1829
   -13.1548 -13.0331 -13.0216 -12.9585 -12.8967 -12.8341 -12.7884 -12.7392
   -12.7119 -12.7048 -12.6703 -12.5848 -12.5735 -12.5705 -12.5465 -12.5416
   -12.5195 -12.4980 -12.4828 -12.4476 -12.4221 -12.4088 -12.4030 -12.3864
   -12.3686 -12.3561 -12.3522 -12.3473 -12.3376 -12.3297 -12.3241 -12.3125
   -12.3064 -12.2989 -12.2921 -12.2824 -12.2755 -12.2655 -12.2596 -12.2515
   -12.2486 -12.2319 -12.2295 -12.2212 -12.2139 -12.2032 -12.1972 -12.1919
   -12.1836 -12.1769 -12.1702 -12.1642 -12.1545 -12.1535 -12.1461 -12.1306
   -12.1243 -12.1191 -12.1138 -12.1100 -12.1058 -12.1006 -12.0913 -12.0823
   -12.0727 -12.0652 -12.0612 -12.0546 -12.0488 -12.0421 -12.0283 -12.0242
   -12.0156 -12.0107 -12.0082 -11.9922 -11.9818 -11.9716 -11.9661 -11.9576
   -11.9506 -11.9427 -11.9367 -11.9292 -11.9251 -11.9186 -11.9099 -11.9013
   -11.8907 -11.8821 -11.8659 -11.8637 -11.8519 -11.8487 -11.8374 -11.8205
   -11.8113 -11.8004 -11.7933 -11.7898 -11.7852 -11.7816 -11.7743 -11.7674
   -11.7597 -11.7483 -11.7399 -11.7308 -11.7261 -11.7139 -11.6925 -11.6863
   -11.6719 -11.6489 -11.6229 -11.6117 -11.6052 -11.6030 -11.5969 -11.5848
   -11.5762 -11.5707 -11.5643 -11.5485 -11.5430 -11.5352 -11.5260 -11.5171
   -11.5127 -11.5055 -11.4933 -11.4638 -11.4330 -11.4179 -11.4168 -11.3927
   -11.2922 -11.2597 -11.1918 -11.0680 -11.0538 -11.0333 -10.8715 -10.7296
     7.3720   7.8164   7.9327   8.1746   8.3603   8.5879   8.7150   8.7729
     8.8817   8.9861   9.0646   9.1657   9.2553   9.3682   9.4010   9.4432
     9.5268   9.5472   9.5997   9.6210   9.6582   9.6908   9.7260   9.7460
     9.7656   9.7894   9.8214   9.8266   9.8448   9.8680   9.8896   9.9040
     9.9267   9.9474   9.9624   9.9824   9.9898  10.0220  10.0385  10.0595
    10.0728  10.0834  10.1035  10.1227  10.1337  10.1387  10.1458  10.1594
    10.1748  10.1916  10.2000  10.2152  10.2241  10.2317  10.2414  10.2524
    10.2551  10.2641  10.2773  10.2888  10.2987  10.3053  10.3196  10.3252
    10.3344  10.3458  10.3513  10.3600  10.3710  10.3816  10.3909  10.4013
    10.4079  10.4166  10.4248  10.4327  10.4472  10.4559  10.4636  10.4699
    10.4770  10.4885  10.4991  10.5058  10.5106  10.5222  10.5315  10.5347
    10.5482  10.5548  10.5643  10.5745  10.5821  10.5870  10.5983  10.6063
    10.6078  10.6250  10.6366  10.6400  10.6462  10.6571  10.6632  10.6731
    10.6753  10.6856  10.6922  10.7050  10.7133  10.7202  10.7303  10.7382
    10.7408  10.7528  10.7668  10.7701  10.7742  10.7841  10.7931  10.8031
    10.8120  10.8198  10.8275  10.8343  10.8441  10.8526  10.8626  10.8709
    10.8784  10.8911  10.9011  10.9105  10.9148  10.9233  10.9320  10.9415
    10.9483  10.9561  10.9631  10.9720  10.9797  10.9845  11.0020  11.0067
    11.0133  11.0177  11.0273  11.0374  11.0431  11.0492  11.0582  11.0665
    11.0756  11.0807  11.0867  11.0993  11.1010  11.1070  11.1199  11.1250
    11.1333  11.1386  11.1486  11.1586  11.1662  11.1748  11.1807  11.1915
    11.1950  11.2042  11.2112  11.2145  11.2245  11.2415  11.2454  11.2501
    11.2574  11.2662  11.2735  11.2828  11.2925  11.2957  11.3003  11.3094
    11.3162  11.3271  11.3361  11.3433  11.3503  11.3573  11.3697  11.3824
    11.3845  11.3898  11.3989  11.4045  11.4192  11.4219  11.4296  11.4385
    11.4549  11.4687  11.4725  11.4794  11.4934  11.4959  11.5062  11.5184
    11.5254  11.5343  11.5416  11.5501  11.5664  11.5714  11.5745  11.5869
    11.5910  11.6045  11.6095  11.6189  11.6306  11.6379  11.6423  11.6481
    11.6587  11.6676  11.6822  11.6906  11.6942  11.7035  11.7216  11.7299
    11.7462  11.7497  11.7607  11.7717  11.7873  11.7985  11.8148  11.8266
    11.8347  11.8402  11.8469  11.8638  11.8702  11.8902  11.9001  11.9077
    11.9104  11.9262  11.9374  11.9523  11.9547  11.9659  11.9829  11.9870
    11.9996  12.0293  12.0339  12.0463  12.0562  12.0773  12.0862  12.1045
    12.1218  12.1458  12.1566  12.1698  12.1998  12.2196  12.2399  12.2510
    12.2713  12.2921  12.3036  12.3300  12.3325  12.3787  12.3875  12.4239
    12.4557  12.4715  12.5020  12.5504  12.5725  12.5946  12.6178  12.6534
    12.6945  12.7150  12.7349  12.7584  12.7703  12.8343  12.8661  12.8860
    12.9283  12.9604  12.9820  13.0264  13.0659  13.0919  13.1047  13.1147
    13.1515  13.1870  13.2201  13.2368  13.2541  13.2892  13.3147  13.3631
    13.3979  13.4063  13.4368  13.4622  13.4897  13.5140  13.5474  13.5586
    13.6032  13.6079  13.6429  13.6836  13.7159  13.7346  13.7525  13.7774
    13.7983  13.8386  13.8699  13.8865  13.9052  13.9201  13.9497  13.9629
    14.0115  14.0312  14.0494  14.0663  14.0851  14.1165  14.1409  14.1634
    14.1808  14.2097  14.2399  14.2472  14.2745  14.2927  14.3216  14.3301
    14.3710  14.3861  14.4125  14.4315  14.4603  14.4795  14.5074  14.5272
    14.5484  14.5731  14.5856  14.6038  14.6307  14.6578  14.6774  14.6968
    14.7212  14.7380  14.7547  14.7758  14.7805  14.8054  14.8337  14.8551
    14.8805  14.9107  14.9301  14.9519  14.9625  14.9840  14.9939  15.0218
    15.0550  15.0909  15.1068  15.1468  15.1875  15.2096  15.2272  15.2542
    15.2697  15.2910  15.3166  15.3456  15.3642  15.3782  15.4135  15.4353
    15.4651  15.4831  15.5280  15.5539  15.5660  15.5836  15.6080  15.6328
    15.6696  15.6882  15.7088  15.7316  15.7915  15.8039  15.8299  15.8737
    15.9033  15.9205  15.9526  15.9759  16.0316  16.0596  16.0785  16.1104
    16.1308  16.1749  16.1933  16.2481  16.2652  16.3019  16.3127  16.3430
    16.3624  16.3727  16.4153  16.4534  16.4666  16.4971  16.5240  16.5469
    16.5679  16.5921  16.6187  16.6351  16.6895  16.7101  16.7412  16.7828
    16.8076  16.8332  16.8639  16.9004  16.9247  16.9509  16.9638  16.9990
    17.0195  17.0454  17.0698  17.0913  17.1234  17.1481  17.1682  17.2164
    17.2299  17.2616  17.2802  17.2895  17.3330  17.3527  17.3760  17.4347
    17.4479  17.4692  17.5087  17.5284  17.5532  17.5855  17.6035  17.6094
    17.6424  17.6681  17.6862  17.7267  17.7418  17.7620  17.7736  17.8045
    17.8352  17.8572  17.8827  17.8974  17.9442  17.9741  17.9848  18.0044
    18.0248  18.0523  18.0790  18.0875  18.1272  18.1346  18.1837  18.2073
    18.2353  18.2582  18.2838  18.2913  18.3149  18.3310  18.3593  18.3728
    18.4040  18.4262  18.4596  18.4745  18.5001  18.5451  18.5732  18.5761
    18.6194  18.6570  18.6921  18.7026  18.7456  18.7730  18.7998  18.8208
    18.8417  18.8702  18.9241  18.9449  18.9649  18.9862  19.0521  19.0816
    19.1183  19.1408  19.1700  19.1898  19.2090  19.2375  19.2757  19.3327
    19.3508  19.3911  19.4280  19.4740  19.5007  19.5081  19.5397  19.5712
    19.6336  19.6544  19.7313  19.7436  19.7710  19.8171  19.8829  19.9326
    19.9839  20.0018  20.0375  20.0830  20.1049  20.1634  20.2095  20.2403
    20.3033  20.3313  20.3736  20.4378  20.4672  20.5252  20.5322  20.5855
    20.7005  20.7110  20.7368  20.7864  20.8377  20.9007  20.9193  20.9998
    21.0574  21.1173  21.1657  21.1878  21.2175  21.2641  21.3201  21.3558
    21.4113  21.4802  21.5037  21.5544  21.5979  21.6446  21.7129  21.7639
    21.7878  21.8661  21.9077  21.9396  21.9779  22.0212  22.0883  22.1338
    22.1951  22.2357  22.2842  22.3050  22.3459  22.4091  22.4620  22.5129
    22.5328  22.5742  22.6299  22.6839  22.7205  22.7882  22.8114  22.8722
    22.9139  22.9913  23.0547  23.0801  23.1130  23.1448  23.1699  23.2366
    23.2914  23.3271  23.3608  23.4078  23.4431  23.4704  23.5125  23.5528
    23.6185  23.6413  23.7056  23.7527  23.7725  23.8115  23.8372  23.8758
    23.9226  23.9760  24.0165  24.0595  24.1103  24.1434  24.1777  24.2150
    24.2413  24.2674  24.3100  24.3376  24.3951  24.4265  24.4757  24.5339
    24.5630  24.6019  24.6402  24.6724  24.7168  24.7729  24.8181  24.8640
    24.9091  24.9650  24.9816  25.0116  25.0666  25.0817  25.1262  25.1629
    25.1800  25.2078  25.2673  25.3333  25.3698  25.3808  25.4462  25.4679
    25.4985  25.5362  25.5761  25.6533  25.6873  25.7340

     occupation numbers 
     1.0000   1.0000   1.0000   1.0000   1.0000   1.0000   1.0000   1.0000
     1.0000   1.0000   1.0000   1.0000   1.0000   1.0000   1.0000   1.0000
     1.0000   1.0000   1.0000   1.0000   1.0000   1.0000   1.0000   1.0000
     1.0000   1.0000   1.0000   1.0000   1.0000   1.0000   1.0000   1.0000
     1.0000   1.0000   1.0000   1.0000   1.0000   1.0000   1.0000   1.0000
     1.0000   1.0000   1.0000   1.0000   1.0000   1.0000   1.0000   1.0000
     1.0000   1.0000   1.0000   1.0000   1.0000   1.0000   1.0000   1.0000
     1.0000   1.0000   1.0000   1.0000   1.0000   1.0000   1.0000   1.0000
     1.0000   1.0000   1.0000   1.0000   1.0000   1.0000   1.0000   1.0000
     1.0000   1.0000   1.0000   1.0000   1.0000   1.0000   1.0000   1.0000
     1.0000   1.0000   1.0000   1.0000   1.0000   1.0000   1.0000   1.0000
     1.0000   1.0000   1.0000   1.0000   1.0000   1.0000   1.0000   1.0000
     1.0000   1.0000   1.0000   1.0000   1.0000   1.0000   1.0000   1.0000
     1.0000   1.0000   1.0000   1.0000   1.0000   1.0000   1.0000   1.0000
     1.0000   1.0000   1.0000   1.0000   1.0000   1.0000   1.0000   1.0000
     1.0000   1.0000   1.0000   1.0000   1.0000   1.0000   1.0000   1.0000
     1.0000   1.0000   1.0000   1.0000   1.0000   1.0000   1.0000   1.0000
     1.0000   1.0000   1.0000   1.0000   1.0000   1.0000   1.0000   1.0000
     1.0000   1.0000   1.0000   1.0000   1.0000   1.0000   1.0000   1.0000
     1.0000   1.0000   1.0000   1.0000   1.0000   1.0000   1.0000   1.0000
     1.0000   1.0000   1.0000   1.0000   1.0000   1.0000   1.0000   1.0000
     1.0000   1.0000   1.0000   1.0000   1.0000   1.0000   1.0000   1.0000
     1.0000   1.0000   1.0000   1.0000   1.0000   1.0000   1.0000   1.0000
     1.0000   1.0000   1.0000   1.0000   1.0000   1.0000   1.0000   1.0000
     1.0000   1.0000   1.0000   1.0000   1.0000   1.0000   1.0000   1.0000
     1.0000   1.0000   1.0000   1.0000   1.0000   1.0000   1.0000   1.0000
     1.0000   1.0000   1.0000   1.0000   1.0000   1.0000   1.0000   1.0000
     1.0000   1.0000   1.0000   1.0000   1.0000   1.0000   1.0000   1.0000
     1.0000   1.0000   1.0000   1.0000   1.0000   1.0000   1.0000   1.0000
     1.0000   1.0000   1.0000   1.0000   1.0000   1.0000   1.0000   1.0000
     1.0000   1.0000   1.0000   1.0000   1.0000   1.0000   1.0000   1.0000
     1.0000   1.0000   1.0000   1.0000   1.0000   1.0000   1.0000   1.0000
     1.0000   1.0000   1.0000   1.0000   1.0000   1.0000   1.0000   1.0000
     1.0000   1.0000   1.0000   1.0000   1.0000   1.0000   1.0000   1.0000
     1.0000   1.0000   1.0000   1.0000   1.0000   1.0000   1.0000   1.0000
     1.0000   1.0000   1.0000   1.0000   1.0000   1.0000   1.0000   1.0000
     1.0000   1.0000   1.0000   1.0000   1.0000   1.0000   1.0000   1.0000
     1.0000   1.0000   1.0000   1.0000   1.0000   1.0000   1.0000   1.0000
     1.0000   1.0000   1.0000   1.0000   1.0000   1.0000   1.0000   1.0000
     1.0000   1.0000   1.0000   1.0000   1.0000   1.0000   1.0000   1.0000
     1.0000   1.0000   1.0000   1.0000   1.0000   1.0000   1.0000   1.0000
     1.0000   1.0000   1.0000   1.0000   1.0000   1.0000   1.0000   1.0000
     1.0000   1.0000   1.0000   1.0000   1.0000   1.0000   1.0000   1.0000
     1.0000   1.0000   1.0000   1.0000   1.0000   1.0000   1.0000   1.0000
     1.0000   1.0000   1.0000   1.0000   1.0000   1.0000   1.0000   1.0000
     1.0000   1.0000   1.0000   1.0000   1.0000   1.0000   1.0000   1.0000
     1.0000   1.0000   1.0000   1.0000   1.0000   1.0000   1.0000   1.0000
     1.0000   1.0000   1.0000   1.0000   1.0000   1.0000   1.0000   1.0000
     1.0000   1.0000   1.0000   1.0000   1.0000   1.0000   1.0000   1.0000
     1.0000   1.0000   1.0000   1.0000   1.0000   1.0000   1.0000   1.0000
     1.0000   1.0000   1.0000   1.0000   1.0000   1.0000   1.0000   1.0000
     1.0000   1.0000   1.0000   1.0000   1.0000   1.0000   1.0000   1.0000
     1.0000   1.0000   1.0000   1.0000   1.0000   1.0000   1.0000   1.0000
     1.0000   1.0000   1.0000   1.0000   1.0000   1.0000   1.0000   1.0000
     1.0000   1.0000   1.0000   1.0000   1.0000   1.0000   1.0000   1.0000
     1.0000   1.0000   1.0000   1.0000   1.0000   1.0000   1.0000   1.0000
     1.0000   1.0000   1.0000   1.0000   1.0000   1.0000   1.0000   1.0000
     1.0000   1.0000   1.0000   1.0000   1.0000   1.0000   1.0000   1.0000
     1.0000   1.0000   1.0000   1.0000   1.0000   1.0000   1.0000   1.0000
     1.0000   1.0000   1.0000   1.0000   1.0000   1.0000   1.0000   1.0000
     1.0000   1.0000   1.0000   1.0000   1.0000   1.0000   1.0000   1.0000
     1.0000   1.0000   1.0000   1.0000   1.0000   1.0000   1.0000   1.0000
     1.0000   1.0000   1.0000   1.0000   1.0000   1.0000   1.0000   1.0000
     1.0000   1.0000   1.0000   1.0000   1.0000   1.0000   1.0000   1.0000
     1.0000   1.0000   1.0000   1.0000   1.0000   1.0000   1.0000   1.0000
     1.0000   1.0000   1.0000   1.0000   1.0000   1.0000   1.0000   1.0000
     1.0000   1.0000   1.0000   1.0000   1.0000   1.0000   1.0000   1.0000
     1.0000   1.0000   1.0000   1.0000   1.0000   1.0000   1.0000   1.0000
     1.0000   1.0000   1.0000   1.0000   1.0000   1.0000   1.0000   1.0000
     1.0000   1.0000   1.0000   1.0000   1.0000   1.0000   1.0000   1.0000
     1.0000   1.0000   1.0000   1.0000   1.0000   1.0000   1.0000   1.0000
     1.0000   1.0000   1.0000   1.0000   1.0000   1.0000   1.0000   1.0000
     1.0000   1.0000   1.0000   1.0000   1.0000   1.0000   1.0000   1.0000
     1.0000   1.0000   1.0000   1.0000   1.0000   1.0000   1.0000   1.0000
     1.0000   1.0000   1.0000   1.0000   1.0000   1.0000   1.0000   1.0000
     1.0000   1.0000   1.0000   1.0000   1.0000   1.0000   1.0000   1.0000
     1.0000   1.0000   1.0000   1.0000   1.0000   1.0000   1.0000   1.0000
     1.0000   1.0000   1.0000   1.0000   1.0000   1.0000   1.0000   1.0000
     1.0000   1.0000   1.0000   1.0000   1.0000   1.0000   1.0000   1.0000
     1.0000   1.0000   1.0000   1.0000   1.0000   1.0000   1.0000   1.0000
     1.0000   1.0000   1.0000   1.0000   1.0000   1.0000   1.0000   1.0000
     1.0000   1.0000   1.0000   1.0000   1.0000   1.0000   1.0000   1.0000
     1.0000   1.0000   1.0000   1.0000   1.0000   1.0000   1.0000   1.0000
     1.0000   1.0000   1.0000   1.0000   1.0000   1.0000   1.0000   1.0000
     1.0000   1.0000   1.0000   1.0000   1.0000   1.0000   1.0000   1.0000
     1.0000   1.0000   1.0000   1.0000   1.0000   1.0000   1.0000   1.0000
     1.0000   1.0000   1.0000   1.0000   1.0000   1.0000   1.0000   1.0000
     1.0000   1.0000   1.0000   1.0000   1.0000   1.0000   1.0000   1.0000
     1.0000   1.0000   1.0000   1.0000   1.0000   1.0000   1.0000   1.0000
     1.0000   1.0000   1.0000   0.9999   0.9999   0.9999   0.9999   0.9999
     0.9999   0.9998   0.9997   0.9997   0.9996   0.9996   0.9994   0.9993
     0.9990   0.9988   0.9985   0.9983   0.9980   0.9973   0.9966   0.9958
     0.9951   0.9936   0.9916   0.9910   0.9885   0.9864   0.9824   0.9810
     0.9725   0.9686   0.9603   0.9531   0.9397   0.9289   0.9100   0.8940
     0.8741   0.8469   0.8314   0.8067   0.7652   0.7175   0.6797   0.6397
     0.5865   0.5488   0.5105   0.4621   0.4514   0.3957   0.3354   0.2930
     0.2472   0.1992   0.1723   0.1455   0.1339   0.1125   0.1038   0.0823
     0.0620   0.0454   0.0394   0.0276   0.0192   0.0157   0.0134   0.0105
     0.0091   0.0075   0.0059   0.0046   0.0038   0.0034   0.0024   0.0020
     0.0015   0.0013   0.0009   0.0007   0.0006   0.0005   0.0004   0.0003
     0.0002   0.0002   0.0002   0.0001   0.0001   0.0001   0.0001   0.0000
     0.0000   0.0000   0.0000   0.0000   0.0000   0.0000   0.0000   0.0000
     0.0000   0.0000   0.0000   0.0000   0.0000   0.0000   0.0000   0.0000
     0.0000   0.0000   0.0000   0.0000   0.0000   0.0000   0.0000   0.0000
     0.0000   0.0000   0.0000   0.0000   0.0000   0.0000   0.0000   0.0000
     0.0000   0.0000   0.0000   0.0000   0.0000   0.0000   0.0000   0.0000
     0.0000   0.0000   0.0000   0.0000   0.0000   0.0000   0.0000   0.0000
     0.0000   0.0000   0.0000   0.0000   0.0000   0.0000   0.0000   0.0000
     0.0000   0.0000   0.0000   0.0000   0.0000   0.0000   0.0000   0.0000
     0.0000   0.0000   0.0000   0.0000   0.0000   0.0000   0.0000   0.0000
     0.0000   0.0000   0.0000   0.0000   0.0000   0.0000   0.0000   0.0000
     0.0000   0.0000   0.0000   0.0000   0.0000   0.0000   0.0000   0.0000
     0.0000   0.0000   0.0000   0.0000   0.0000   0.0000   0.0000   0.0000
     0.0000   0.0000   0.0000   0.0000   0.0000   0.0000   0.0000   0.0000
     0.0000   0.0000   0.0000   0.0000   0.0000   0.0000   0.0000   0.0000
     0.0000   0.0000   0.0000   0.0000   0.0000   0.0000   0.0000   0.0000
     0.0000   0.0000   0.0000   0.0000   0.0000   0.0000   0.0000   0.0000
     0.0000   0.0000   0.0000   0.0000   0.0000   0.0000   0.0000   0.0000
     0.0000   0.0000   0.0000   0.0000   0.0000   0.0000   0.0000   0.0000
     0.0000   0.0000   0.0000   0.0000   0.0000   0.0000   0.0000   0.0000
     0.0000   0.0000   0.0000   0.0000   0.0000   0.0000   0.0000   0.0000
     0.0000   0.0000   0.0000   0.0000   0.0000   0.0000   0.0000   0.0000
     0.0000   0.0000   0.0000   0.0000   0.0000   0.0000   0.0000   0.0000
     0.0000   0.0000   0.0000   0.0000   0.0000   0.0000   0.0000   0.0000
     0.0000   0.0000   0.0000   0.0000   0.0000   0.0000   0.0000   0.0000
     0.0000   0.0000   0.0000   0.0000   0.0000   0.0000   0.0000   0.0000
     0.0000   0.0000   0.0000   0.0000   0.0000   0.0000   0.0000   0.0000
     0.0000   0.0000   0.0000   0.0000   0.0000   0.0000   0.0000   0.0000
     0.0000   0.0000   0.0000   0.0000   0.0000   0.0000   0.0000   0.0000
     0.0000   0.0000   0.0000   0.0000   0.0000   0.0000   0.0000   0.0000
     0.0000   0.0000   0.0000   0.0000   0.0000   0.0000   0.0000   0.0000
     0.0000   0.0000   0.0000   0.0000   0.0000   0.0000   0.0000   0.0000
     0.0000   0.0000   0.0000   0.0000   0.0000   0.0000   0.0000   0.0000
     0.0000   0.0000   0.0000   0.0000   0.0000   0.0000   0.0000   0.0000
     0.0000   0.0000   0.0000   0.0000   0.0000   0.0000   0.0000   0.0000
     0.0000   0.0000   0.0000   0.0000   0.0000   0.0000

          k = 0.2500 0.2500-0.3750 (116150 PWs)   bands (ev):

   -99.3305 -99.2599 -99.2373 -99.2200 -99.0670 -98.9432 -98.9288 -98.9125
   -98.8881 -98.8851 -98.8195 -98.8094 -98.7828 -98.7774 -98.7646 -98.7605
   -98.6982 -98.6470 -98.6427 -98.6402 -98.6235 -98.6120 -98.5847 -98.5787
   -98.5346 -98.5134 -98.5039 -98.4886 -98.4670 -98.4636 -98.4540 -98.4333
   -98.4285 -98.3856 -98.3761 -98.3577 -98.3509 -98.3256 -98.3130 -98.3073
   -98.3010 -98.2816 -98.2776 -98.2749 -98.2001 -98.1628 -98.1291 -98.0290
   -98.0225 -57.0963 -56.9311 -56.8817 -56.8018 -56.7992 -56.5989 -56.5898
   -56.5642 -56.5324 -56.5228 -56.4646 -56.4505 -56.4455 -56.4318 -56.4279
   -56.4172 -56.4106 -56.3978 -56.3782 -56.3742 -56.3662 -56.3349 -56.3173
   -56.3137 -56.3059 -56.2649 -56.2309 -56.2303 -56.2190 -56.2153 -56.2091
   -56.2020 -56.1972 -56.1809 -56.1793 -56.1505 -56.1502 -56.1450 -56.1136
   -56.1050 -56.0991 -56.0928 -56.0803 -56.0772 -56.0690 -56.0662 -56.0646
   -56.0591 -56.0580 -56.0529 -56.0367 -56.0067 -56.0000 -55.9925 -55.9780
   -55.9778 -55.9758 -55.9645 -55.9606 -55.9591 -55.9452 -55.9432 -55.9430
   -55.9334 -55.9235 -55.9217 -55.9180 -55.9165 -55.9084 -55.8917 -55.8833
   -55.8802 -55.8781 -55.8682 -55.8576 -55.8554 -55.8460 -55.8457 -55.8445
   -55.8434 -55.8311 -55.8273 -55.8266 -55.8185 -55.8172 -55.8150 -55.8131
   -55.8088 -55.8054 -55.7991 -55.7937 -55.7922 -55.7814 -55.7689 -55.7687
   -55.7682 -55.7658 -55.7654 -55.7620 -55.7497 -55.7468 -55.7439 -55.7379
   -55.7340 -55.7176 -55.7170 -55.7091 -55.7027 -55.7001 -55.6971 -55.6898
   -55.6750 -55.6671 -55.6643 -55.6601 -55.6555 -55.6511 -55.6483 -55.6428
   -55.6374 -55.6285 -55.6254 -55.6232 -55.6213 -55.6104 -55.6015 -55.5926
   -55.5879 -55.5643 -55.5599 -55.5567 -55.5460 -55.5320 -55.5111 -55.5076
   -55.5046 -55.4755 -55.4746 -55.4615 -55.4204 -55.4195 -55.3942 -55.3831
   -55.3639 -55.3364 -55.3080 -55.2940 -34.2940 -34.2350 -34.2101 -34.1424
   -34.1335 -34.1259 -34.0989 -34.0824 -34.0810 -34.0694 -34.0658 -34.0589
   -34.0546 -34.0468 -34.0367 -34.0342 -34.0307 -34.0256 -34.0201 -33.9881
   -33.9777 -33.9674 -33.9564 -33.9219 -33.8878 -33.8701 -33.8669 -33.8649
   -33.8530 -33.8361 -33.8340 -33.8284 -33.8194 -33.8164 -33.8033 -33.7854
   -33.7814 -33.7764 -33.7528 -33.7318 -33.7068 -33.6627 -33.6561 -33.6547
   -33.6375 -33.6234 -33.4628 -33.4567 -33.4483 -13.2432 -13.2333 -13.1812
   -13.1562 -13.0331 -13.0216 -12.9585 -12.8968 -12.8338 -12.7885 -12.7385
   -12.7119 -12.7048 -12.6705 -12.5849 -12.5748 -12.5703 -12.5464 -12.5363
   -12.5188 -12.5009 -12.4792 -12.4572 -12.4221 -12.4074 -12.4008 -12.3872
   -12.3670 -12.3583 -12.3498 -12.3478 -12.3358 -12.3268 -12.3244 -12.3126
   -12.3082 -12.2999 -12.2942 -12.2777 -12.2764 -12.2703 -12.2608 -12.2534
   -12.2462 -12.2344 -12.2259 -12.2234 -12.2196 -12.2037 -12.1978 -12.1908
   -12.1796 -12.1758 -12.1699 -12.1612 -12.1551 -12.1490 -12.1445 -12.1374
   -12.1313 -12.1174 -12.1118 -12.1090 -12.0982 -12.0945 -12.0878 -12.0786
   -12.0745 -12.0672 -12.0655 -12.0603 -12.0545 -12.0398 -12.0311 -12.0228
   -12.0128 -12.0104 -12.0050 -11.9931 -11.9820 -11.9774 -11.9680 -11.9614
   -11.9478 -11.9429 -11.9394 -11.9304 -11.9205 -11.9171 -11.9124 -11.9008
   -11.8878 -11.8763 -11.8701 -11.8621 -11.8548 -11.8504 -11.8318 -11.8262
   -11.8106 -11.7965 -11.7929 -11.7899 -11.7863 -11.7819 -11.7775 -11.7629
   -11.7573 -11.7535 -11.7382 -11.7312 -11.7271 -11.7137 -11.6897 -11.6815
   -11.6714 -11.6556 -11.6245 -11.6138 -11.6075 -11.6039 -11.5960 -11.5849
   -11.5752 -11.5713 -11.5631 -11.5478 -11.5442 -11.5334 -11.5251 -11.5161
   -11.5109 -11.5061 -11.4938 -11.4650 -11.4329 -11.4178 -11.4164 -11.3925
   -11.2914 -11.2597 -11.1918 -11.0672 -11.0549 -11.0331 -10.8715 -10.7301
     7.4932   7.6883   7.8764   8.1634   8.3521   8.5509   8.6614   8.8492
     8.9311   9.0283   9.1054   9.1402   9.2589   9.3629   9.4282   9.4677
     9.5190   9.5429   9.6130   9.6211   9.6551   9.7011   9.7267   9.7425
     9.7769   9.8047   9.8179   9.8349   9.8429   9.8566   9.8913   9.9060
     9.9206   9.9284   9.9537   9.9882  10.0047  10.0340  10.0453  10.0687
    10.0821  10.0855  10.0965  10.1115  10.1148  10.1312  10.1450  10.1546
    10.1692  10.1869  10.1993  10.2065  10.2139  10.2227  10.2410  10.2443
    10.2646  10.2690  10.2749  10.2873  10.3028  10.3117  10.3172  10.3225
    10.3374  10.3441  10.3492  10.3651  10.3727  10.3819  10.3971  10.4042
    10.4101  10.4220  10.4268  10.4320  10.4446  10.4534  10.4645  10.4714
    10.4769  10.4875  10.4980  10.5037  10.5117  10.5267  10.5303  10.5438
    10.5466  10.5543  10.5627  10.5704  10.5858  10.5897  10.5993  10.6046
    10.6133  10.6141  10.6250  10.6435  10.6515  10.6555  10.6624  10.6706
    10.6882  10.6948  10.6967  10.7047  10.7164  10.7286  10.7323  10.7405
    10.7488  10.7587  10.7665  10.7766  10.7857  10.7884  10.7990  10.8078
    10.8098  10.8145  10.8245  10.8342  10.8435  10.8523  10.8635  10.8711
    10.8752  10.8874  10.8932  10.9017  10.9150  10.9227  10.9324  10.9375
    10.9478  10.9565  10.9587  10.9743  10.9798  10.9905  10.9980  11.0061
    11.0157  11.0195  11.0276  11.0314  11.0495  11.0533  11.0604  11.0674
    11.0723  11.0811  11.0843  11.0885  11.0953  11.1106  11.1163  11.1258
    11.1288  11.1412  11.1463  11.1536  11.1613  11.1655  11.1761  11.1890
    11.1998  11.2067  11.2157  11.2219  11.2302  11.2343  11.2418  11.2470
    11.2556  11.2630  11.2667  11.2794  11.2894  11.2918  11.3028  11.3085
    11.3162  11.3245  11.3340  11.3389  11.3515  11.3582  11.3666  11.3721
    11.3820  11.3872  11.3976  11.4034  11.4116  11.4230  11.4329  11.4384
    11.4528  11.4581  11.4633  11.4768  11.4823  11.5013  11.5050  11.5108
    11.5195  11.5286  11.5326  11.5508  11.5560  11.5689  11.5763  11.5879
    11.5942  11.6010  11.6098  11.6200  11.6324  11.6399  11.6427  11.6520
    11.6632  11.6711  11.6845  11.6946  11.6983  11.7156  11.7201  11.7246
    11.7345  11.7513  11.7630  11.7718  11.7817  11.7903  11.8013  11.8116
    11.8300  11.8339  11.8487  11.8610  11.8728  11.8764  11.8893  11.9010
    11.9099  11.9179  11.9318  11.9456  11.9530  11.9708  11.9788  12.0023
    12.0129  12.0187  12.0405  12.0505  12.0550  12.0754  12.0986  12.1086
    12.1291  12.1338  12.1558  12.1716  12.1863  12.2036  12.2257  12.2482
    12.2667  12.2802  12.3035  12.3206  12.3520  12.3652  12.3914  12.4273
    12.4488  12.4731  12.5413  12.5693  12.5877  12.6079  12.6582  12.6632
    12.6902  12.7091  12.7478  12.7711  12.8117  12.8398  12.8625  12.8996
    12.9375  12.9578  12.9753  13.0019  13.0411  13.0833  13.0920  13.1293
    13.1772  13.1886  13.2134  13.2380  13.2615  13.2949  13.3230  13.3270
    13.3612  13.3982  13.4134  13.4402  13.4751  13.5216  13.5579  13.5984
    13.6109  13.6517  13.6688  13.6896  13.7090  13.7299  13.7696  13.7919
    13.8114  13.8367  13.8483  13.8696  13.8944  13.9290  13.9423  13.9680
    13.9940  14.0224  14.0371  14.0597  14.1012  14.1140  14.1292  14.1524
    14.1858  14.1980  14.2356  14.2533  14.2678  14.3077  14.3226  14.3507
    14.3559  14.3865  14.4094  14.4346  14.4509  14.4618  14.4963  14.5103
    14.5239  14.5466  14.5846  14.5974  14.6151  14.6425  14.6750  14.6964
    14.7285  14.7491  14.7642  14.7901  14.7988  14.8365  14.8426  14.8538
    14.8875  14.9211  14.9368  14.9618  14.9805  15.0054  15.0228  15.0507
    15.0692  15.1003  15.1148  15.1330  15.1726  15.1766  15.2105  15.2343
    15.2547  15.2916  15.3065  15.3286  15.3601  15.3884  15.4099  15.4326
    15.4791  15.4974  15.5118  15.5364  15.5786  15.5967  15.6174  15.6349
    15.6807  15.7034  15.7364  15.7680  15.8040  15.8228  15.8437  15.8613
    15.8983  15.9298  15.9595  15.9778  15.9929  16.0255  16.0706  16.1023
    16.1318  16.1851  16.1945  16.2351  16.2574  16.2692  16.3336  16.3410
    16.3619  16.4092  16.4255  16.4563  16.4949  16.5101  16.5406  16.5576
    16.5813  16.6139  16.6251  16.6597  16.6773  16.7053  16.7364  16.7617
    16.7907  16.8260  16.8401  16.8733  16.8859  16.9217  16.9579  16.9831
    17.0115  17.0509  17.0786  17.1038  17.1327  17.1687  17.1833  17.1994
    17.2366  17.2659  17.2826  17.3174  17.3487  17.3844  17.3956  17.4063
    17.4372  17.4774  17.4939  17.5191  17.5414  17.5628  17.5925  17.6134
    17.6355  17.6641  17.7009  17.7069  17.7317  17.7682  17.7959  17.8133
    17.8277  17.8689  17.8913  17.9057  17.9150  17.9518  17.9726  18.0053
    18.0390  18.0552  18.0650  18.0985  18.1281  18.1289  18.1611  18.1754
    18.2182  18.2437  18.2624  18.2714  18.2922  18.3318  18.3507  18.3923
    18.4084  18.4427  18.4494  18.4760  18.5122  18.5426  18.5647  18.5940
    18.6251  18.6513  18.6687  18.7166  18.7405  18.7684  18.8074  18.8396
    18.8648  18.8851  18.9125  18.9323  18.9582  18.9959  19.0209  19.0779
    19.1283  19.1440  19.1723  19.1967  19.2398  19.2807  19.3316  19.3453
    19.3729  19.3948  19.4216  19.4471  19.4812  19.5052  19.5516  19.5904
    19.6400  19.6750  19.7111  19.7692  19.7981  19.8582  19.8821  19.9182
    19.9401  19.9830  20.0083  20.0682  20.1018  20.1472  20.1799  20.2134
    20.2670  20.3108  20.3546  20.3808  20.4432  20.5213  20.5564  20.5893
    20.6347  20.6912  20.7331  20.7805  20.8426  20.9011  20.9443  20.9890
    21.0292  21.0598  21.1524  21.2038  21.2458  21.2895  21.3449  21.3651
    21.4540  21.4992  21.5433  21.5683  21.6505  21.6793  21.6965  21.7434
    21.8152  21.8724  21.9085  21.9431  22.0265  22.0703  22.0858  22.1608
    22.1929  22.2207  22.2817  22.3118  22.3610  22.3935  22.4629  22.4944
    22.5478  22.6079  22.6487  22.7072  22.7426  22.7924  22.8371  22.8690
    22.9081  22.9567  22.9894  23.0511  23.0802  23.0989  23.1461  23.2135
    23.2578  23.3298  23.3640  23.4067  23.4572  23.4855  23.5366  23.5791
    23.6060  23.6571  23.6947  23.7135  23.7694  23.7822  23.8220  23.8730
    23.9112  23.9421  23.9949  24.0345  24.0907  24.1187  24.2102  24.2394
    24.2842  24.3117  24.3358  24.3546  24.4033  24.4553  24.5076  24.5533
    24.5814  24.6355  24.6679  24.7336  24.7656  24.7959  24.8422  24.8816
    24.8901  24.9357  24.9606  24.9866  25.0771  25.0965  25.1672  25.2148
    25.2363  25.2677  25.2969  25.3228  25.3646  25.4064  25.4610  25.4949
    25.5190  25.5512  25.6000  25.6350  25.6656  25.7059

     occupation numbers 
     1.0000   1.0000   1.0000   1.0000   1.0000   1.0000   1.0000   1.0000
     1.0000   1.0000   1.0000   1.0000   1.0000   1.0000   1.0000   1.0000
     1.0000   1.0000   1.0000   1.0000   1.0000   1.0000   1.0000   1.0000
     1.0000   1.0000   1.0000   1.0000   1.0000   1.0000   1.0000   1.0000
     1.0000   1.0000   1.0000   1.0000   1.0000   1.0000   1.0000   1.0000
     1.0000   1.0000   1.0000   1.0000   1.0000   1.0000   1.0000   1.0000
     1.0000   1.0000   1.0000   1.0000   1.0000   1.0000   1.0000   1.0000
     1.0000   1.0000   1.0000   1.0000   1.0000   1.0000   1.0000   1.0000
     1.0000   1.0000   1.0000   1.0000   1.0000   1.0000   1.0000   1.0000
     1.0000   1.0000   1.0000   1.0000   1.0000   1.0000   1.0000   1.0000
     1.0000   1.0000   1.0000   1.0000   1.0000   1.0000   1.0000   1.0000
     1.0000   1.0000   1.0000   1.0000   1.0000   1.0000   1.0000   1.0000
     1.0000   1.0000   1.0000   1.0000   1.0000   1.0000   1.0000   1.0000
     1.0000   1.0000   1.0000   1.0000   1.0000   1.0000   1.0000   1.0000
     1.0000   1.0000   1.0000   1.0000   1.0000   1.0000   1.0000   1.0000
     1.0000   1.0000   1.0000   1.0000   1.0000   1.0000   1.0000   1.0000
     1.0000   1.0000   1.0000   1.0000   1.0000   1.0000   1.0000   1.0000
     1.0000   1.0000   1.0000   1.0000   1.0000   1.0000   1.0000   1.0000
     1.0000   1.0000   1.0000   1.0000   1.0000   1.0000   1.0000   1.0000
     1.0000   1.0000   1.0000   1.0000   1.0000   1.0000   1.0000   1.0000
     1.0000   1.0000   1.0000   1.0000   1.0000   1.0000   1.0000   1.0000
     1.0000   1.0000   1.0000   1.0000   1.0000   1.0000   1.0000   1.0000
     1.0000   1.0000   1.0000   1.0000   1.0000   1.0000   1.0000   1.0000
     1.0000   1.0000   1.0000   1.0000   1.0000   1.0000   1.0000   1.0000
     1.0000   1.0000   1.0000   1.0000   1.0000   1.0000   1.0000   1.0000
     1.0000   1.0000   1.0000   1.0000   1.0000   1.0000   1.0000   1.0000
     1.0000   1.0000   1.0000   1.0000   1.0000   1.0000   1.0000   1.0000
     1.0000   1.0000   1.0000   1.0000   1.0000   1.0000   1.0000   1.0000
     1.0000   1.0000   1.0000   1.0000   1.0000   1.0000   1.0000   1.0000
     1.0000   1.0000   1.0000   1.0000   1.0000   1.0000   1.0000   1.0000
     1.0000   1.0000   1.0000   1.0000   1.0000   1.0000   1.0000   1.0000
     1.0000   1.0000   1.0000   1.0000   1.0000   1.0000   1.0000   1.0000
     1.0000   1.0000   1.0000   1.0000   1.0000   1.0000   1.0000   1.0000
     1.0000   1.0000   1.0000   1.0000   1.0000   1.0000   1.0000   1.0000
     1.0000   1.0000   1.0000   1.0000   1.0000   1.0000   1.0000   1.0000
     1.0000   1.0000   1.0000   1.0000   1.0000   1.0000   1.0000   1.0000
     1.0000   1.0000   1.0000   1.0000   1.0000   1.0000   1.0000   1.0000
     1.0000   1.0000   1.0000   1.0000   1.0000   1.0000   1.0000   1.0000
     1.0000   1.0000   1.0000   1.0000   1.0000   1.0000   1.0000   1.0000
     1.0000   1.0000   1.0000   1.0000   1.0000   1.0000   1.0000   1.0000
     1.0000   1.0000   1.0000   1.0000   1.0000   1.0000   1.0000   1.0000
     1.0000   1.0000   1.0000   1.0000   1.0000   1.0000   1.0000   1.0000
     1.0000   1.0000   1.0000   1.0000   1.0000   1.0000   1.0000   1.0000
     1.0000   1.0000   1.0000   1.0000   1.0000   1.0000   1.0000   1.0000
     1.0000   1.0000   1.0000   1.0000   1.0000   1.0000   1.0000   1.0000
     1.0000   1.0000   1.0000   1.0000   1.0000   1.0000   1.0000   1.0000
     1.0000   1.0000   1.0000   1.0000   1.0000   1.0000   1.0000   1.0000
     1.0000   1.0000   1.0000   1.0000   1.0000   1.0000   1.0000   1.0000
     1.0000   1.0000   1.0000   1.0000   1.0000   1.0000   1.0000   1.0000
     1.0000   1.0000   1.0000   1.0000   1.0000   1.0000   1.0000   1.0000
     1.0000   1.0000   1.0000   1.0000   1.0000   1.0000   1.0000   1.0000
     1.0000   1.0000   1.0000   1.0000   1.0000   1.0000   1.0000   1.0000
     1.0000   1.0000   1.0000   1.0000   1.0000   1.0000   1.0000   1.0000
     1.0000   1.0000   1.0000   1.0000   1.0000   1.0000   1.0000   1.0000
     1.0000   1.0000   1.0000   1.0000   1.0000   1.0000   1.0000   1.0000
     1.0000   1.0000   1.0000   1.0000   1.0000   1.0000   1.0000   1.0000
     1.0000   1.0000   1.0000   1.0000   1.0000   1.0000   1.0000   1.0000
     1.0000   1.0000   1.0000   1.0000   1.0000   1.0000   1.0000   1.0000
     1.0000   1.0000   1.0000   1.0000   1.0000   1.0000   1.0000   1.0000
     1.0000   1.0000   1.0000   1.0000   1.0000   1.0000   1.0000   1.0000
     1.0000   1.0000   1.0000   1.0000   1.0000   1.0000   1.0000   1.0000
     1.0000   1.0000   1.0000   1.0000   1.0000   1.0000   1.0000   1.0000
     1.0000   1.0000   1.0000   1.0000   1.0000   1.0000   1.0000   1.0000
     1.0000   1.0000   1.0000   1.0000   1.0000   1.0000   1.0000   1.0000
     1.0000   1.0000   1.0000   1.0000   1.0000   1.0000   1.0000   1.0000
     1.0000   1.0000   1.0000   1.0000   1.0000   1.0000   1.0000   1.0000
     1.0000   1.0000   1.0000   1.0000   1.0000   1.0000   1.0000   1.0000
[...]
     atom   84 type  2   force =     0.00017337   -0.00013606   -0.00032027
     atom   85 type  3   force =     0.00108449    0.00035513   -0.00136618
     atom   86 type  2   force =    -0.00048388   -0.00010460    0.00039701
     atom   87 type  3   force =    -0.00080761   -0.00138613   -0.00085894
     atom   88 type  3   force =    -0.00339305    0.00117924   -0.00092120
     atom   89 type  1   force =    -0.00025220   -0.00525920    0.00059978
     atom   90 type  3   force =     0.00120525    0.00089400   -0.00004767
     atom   91 type  2   force =     0.00005938    0.00017101    0.00042164
     atom   92 type  2   force =    -0.00003608   -0.00036304    0.00009686
     atom   93 type  2   force =    -0.00006461    0.00016511   -0.00021629
     atom   94 type  2   force =     0.00018735    0.00083718   -0.00015579
     atom   95 type  2   force =    -0.00018014   -0.00025823    0.00009689
     atom   96 type  3   force =     0.00053909   -0.00075607    0.00065394
     atom   97 type  3   force =    -0.00138596   -0.00194031    0.00360126
     atom   98 type  2   force =    -0.00012807   -0.00000616    0.00009990
     atom   99 type  2   force =    -0.00020807   -0.00012860    0.00040919
     atom  100 type  3   force =    -0.00124337   -0.00077038    0.00131635
     The Hubbard contrib.    to forces
     atom    1 type  2   force =     0.00000000    0.00000000    0.00000000
     atom    2 type  3   force =     0.00000000    0.00000000    0.00000000
     atom    3 type  2   force =     0.00000000    0.00000000    0.00000000
     atom    4 type  2   force =     0.00000000    0.00000000    0.00000000
     atom    5 type  3   force =     0.00000000    0.00000000    0.00000000
     atom    6 type  2   force =     0.00000000    0.00000000    0.00000000
     atom    7 type  2   force =     0.00000000    0.00000000    0.00000000
     atom    8 type  2   force =     0.00000000    0.00000000    0.00000000
     atom    9 type  3   force =     0.00000000    0.00000000    0.00000000
     atom   10 type  2   force =     0.00000000    0.00000000    0.00000000
     atom   11 type  3   force =     0.00000000    0.00000000    0.00000000
     atom   12 type  3   force =     0.00000000    0.00000000    0.00000000
     atom   13 type  3   force =     0.00000000    0.00000000    0.00000000
     atom   14 type  3   force =     0.00000000    0.00000000    0.00000000
     atom   15 type  2   force =     0.00000000    0.00000000    0.00000000
     atom   16 type  3   force =     0.00000000    0.00000000    0.00000000
     atom   17 type  2   force =     0.00000000    0.00000000    0.00000000
     atom   18 type  2   force =     0.00000000    0.00000000    0.00000000
     atom   19 type  3   force =     0.00000000    0.00000000    0.00000000
     atom   20 type  2   force =     0.00000000    0.00000000    0.00000000
     atom   21 type  2   force =     0.00000000    0.00000000    0.00000000
     atom   22 type  2   force =     0.00000000    0.00000000    0.00000000
     atom   23 type  3   force =     0.00000000    0.00000000    0.00000000
     atom   24 type  2   force =     0.00000000    0.00000000    0.00000000
     atom   25 type  2   force =     0.00000000    0.00000000    0.00000000
     atom   26 type  3   force =     0.00000000    0.00000000    0.00000000
     atom   27 type  2   force =     0.00000000    0.00000000    0.00000000
     atom   28 type  2   force =     0.00000000    0.00000000    0.00000000
     atom   29 type  3   force =     0.00000000    0.00000000    0.00000000
     atom   30 type  2   force =     0.00000000    0.00000000    0.00000000
     atom   31 type  3   force =     0.00000000    0.00000000    0.00000000
     atom   32 type  3   force =     0.00000000    0.00000000    0.00000000
     atom   33 type  3   force =     0.00000000    0.00000000    0.00000000
     atom   34 type  1   force =     0.00000000    0.00000000    0.00000000
     atom   35 type  2   force =     0.00000000    0.00000000    0.00000000
     atom   36 type  2   force =     0.00000000    0.00000000    0.00000000
     atom   37 type  3   force =     0.00000000    0.00000000    0.00000000
     atom   38 type  3   force =     0.00000000    0.00000000    0.00000000
     atom   39 type  2   force =     0.00000000    0.00000000    0.00000000
     atom   40 type  3   force =     0.00000000    0.00000000    0.00000000
     atom   41 type  3   force =     0.00000000    0.00000000    0.00000000
     atom   42 type  3   force =     0.00000000    0.00000000    0.00000000
     atom   43 type  2   force =     0.00000000    0.00000000    0.00000000
     atom   44 type  3   force =     0.00000000    0.00000000    0.00000000
     atom   45 type  2   force =     0.00000000    0.00000000    0.00000000
     atom   46 type  3   force =     0.00000000    0.00000000    0.00000000
     atom   47 type  3   force =     0.00000000    0.00000000    0.00000000
     atom   48 type  3   force =     0.00000000    0.00000000    0.00000000
     atom   49 type  2   force =     0.00000000    0.00000000    0.00000000
     atom   50 type  3   force =     0.00000000    0.00000000    0.00000000
     atom   51 type  3   force =     0.00000000    0.00000000    0.00000000
     atom   52 type  3   force =     0.00000000    0.00000000    0.00000000
     atom   53 type  2   force =     0.00000000    0.00000000    0.00000000
     atom   54 type  3   force =     0.00000000    0.00000000    0.00000000
     atom   55 type  3   force =     0.00000000    0.00000000    0.00000000
     atom   56 type  2   force =     0.00000000    0.00000000    0.00000000
     atom   57 type  3   force =     0.00000000    0.00000000    0.00000000
     atom   58 type  2   force =     0.00000000    0.00000000    0.00000000
     atom   59 type  3   force =     0.00000000    0.00000000    0.00000000
     atom   60 type  3   force =     0.00000000    0.00000000    0.00000000
     atom   61 type  2   force =     0.00000000    0.00000000    0.00000000
     atom   62 type  3   force =     0.00000000    0.00000000    0.00000000
     atom   63 type  2   force =     0.00000000    0.00000000    0.00000000
     atom   64 type  2   force =     0.00000000    0.00000000    0.00000000
     atom   65 type  3   force =     0.00000000    0.00000000    0.00000000
     atom   66 type  2   force =     0.00000000    0.00000000    0.00000000
     atom   67 type  2   force =     0.00000000    0.00000000    0.00000000
     atom   68 type  2   force =     0.00000000    0.00000000    0.00000000
     atom   69 type  2   force =     0.00000000    0.00000000    0.00000000
     atom   70 type  3   force =     0.00000000    0.00000000    0.00000000
     atom   71 type  2   force =     0.00000000    0.00000000    0.00000000
     atom   72 type  2   force =     0.00000000    0.00000000    0.00000000
     atom   73 type  3   force =     0.00000000    0.00000000    0.00000000
     atom   74 type  2   force =     0.00000000    0.00000000    0.00000000
     atom   75 type  2   force =     0.00000000    0.00000000    0.00000000
     atom   76 type  3   force =     0.00000000    0.00000000    0.00000000
     atom   77 type  3   force =     0.00000000    0.00000000    0.00000000
     atom   78 type  2   force =     0.00000000    0.00000000    0.00000000
     atom   79 type  3   force =     0.00000000    0.00000000    0.00000000
     atom   80 type  2   force =     0.00000000    0.00000000    0.00000000
     atom   81 type  3   force =     0.00000000    0.00000000    0.00000000
     atom   82 type  3   force =     0.00000000    0.00000000    0.00000000
     atom   83 type  3   force =     0.00000000    0.00000000    0.00000000
     atom   84 type  2   force =     0.00000000    0.00000000    0.00000000
     atom   85 type  3   force =     0.00000000    0.00000000    0.00000000
     atom   86 type  2   force =     0.00000000    0.00000000    0.00000000
     atom   87 type  3   force =     0.00000000    0.00000000    0.00000000
     atom   88 type  3   force =     0.00000000    0.00000000    0.00000000
     atom   89 type  1   force =     0.00000000    0.00000000    0.00000000
     atom   90 type  3   force =     0.00000000    0.00000000    0.00000000
     atom   91 type  2   force =     0.00000000    0.00000000    0.00000000
     atom   92 type  2   force =     0.00000000    0.00000000    0.00000000
     atom   93 type  2   force =     0.00000000    0.00000000    0.00000000
     atom   94 type  2   force =     0.00000000    0.00000000    0.00000000
     atom   95 type  2   force =     0.00000000    0.00000000    0.00000000
     atom   96 type  3   force =     0.00000000    0.00000000    0.00000000
     atom   97 type  3   force =     0.00000000    0.00000000    0.00000000
     atom   98 type  2   force =     0.00000000    0.00000000    0.00000000
     atom   99 type  2   force =     0.00000000    0.00000000    0.00000000
     atom  100 type  3   force =     0.00000000    0.00000000    0.00000000
     The SCF correction term to forces
     atom    1 type  2   force =    -0.00037643    0.00004452    0.00095015
     atom    2 type  3   force =    -0.00012755   -0.00005656    0.00052249
     atom    3 type  2   force =    -0.00014141   -0.00009224   -0.00006705
     atom    4 type  2   force =    -0.00009027   -0.00035306   -0.00083458
     atom    5 type  3   force =    -0.00016823   -0.00011439    0.00003431
     atom    6 type  2   force =     0.00006560   -0.00014158   -0.00072989
     atom    7 type  2   force =    -0.00059859    0.00000391    0.00115802
     atom    8 type  2   force =     0.00014203    0.00032363    0.00083133
     atom    9 type  3   force =    -0.00030082   -0.00013428    0.00008566
     atom   10 type  2   force =     0.00003154   -0.00000369   -0.00026533
     atom   11 type  3   force =     0.00000828    0.00001966    0.00038752
     atom   12 type  3   force =    -0.00019267    0.00024506   -0.00022617
     atom   13 type  3   force =    -0.00008549    0.00008576    0.00001630
     atom   14 type  3   force =    -0.00000900    0.00019251   -0.00035290
     atom   15 type  2   force =    -0.00012841    0.00010554    0.00046985
     atom   16 type  3   force =     0.00003075   -0.00005528    0.00046194
     atom   17 type  2   force =    -0.00041414    0.00002035   -0.00016244
     atom   18 type  2   force =    -0.00024938    0.00012111   -0.00065289
     atom   19 type  3   force =     0.00010389   -0.00004483   -0.00026431
     atom   20 type  2   force =    -0.00020070   -0.00000318   -0.00020941
     atom   21 type  2   force =    -0.00054162    0.00011096    0.00102720
     atom   22 type  2   force =    -0.00036223   -0.00000663    0.00076528
     atom   23 type  3   force =    -0.00014155   -0.00009727   -0.00016483
     atom   24 type  2   force =    -0.00013971   -0.00014815   -0.00029191
     atom   25 type  2   force =    -0.00003057   -0.00023592   -0.00075583
     atom   26 type  3   force =     0.00010984    0.00007555    0.00026303
     atom   27 type  2   force =     0.00044442    0.00017913    0.00042985
     atom   28 type  2   force =     0.00022931   -0.00000123   -0.00024171
     atom   29 type  3   force =     0.00015711   -0.00004571   -0.00051734
     atom   30 type  2   force =     0.00030431    0.00016243   -0.00079525
     atom   31 type  3   force =     0.00023017   -0.00024481   -0.00038615
     atom   32 type  3   force =     0.00001941    0.00020361    0.00047915
     atom   33 type  3   force =     0.00001817    0.00013763    0.00024367
     atom   34 type  1   force =    -0.00000459   -0.00000520    0.00001404
     atom   35 type  2   force =     0.00027454   -0.00010559   -0.00044074
     atom   36 type  2   force =     0.00001581    0.00014987   -0.00043248
     atom   37 type  3   force =     0.00031586    0.00016585   -0.00048568
     atom   38 type  3   force =     0.00028566    0.00023954   -0.00000464
     atom   39 type  2   force =     0.00027664    0.00011314    0.00038059
     atom   40 type  3   force =    -0.00014948    0.00000942    0.00009267
     atom   41 type  3   force =     0.00018584    0.00004115   -0.00007515
     atom   42 type  3   force =     0.00001662    0.00001221   -0.00032183
     atom   43 type  2   force =     0.00088431    0.00010158   -0.00069058
     atom   44 type  3   force =     0.00024014   -0.00015378   -0.00004148
     atom   45 type  2   force =     0.00002722   -0.00036888    0.00043312
     atom   46 type  3   force =     0.00017065   -0.00017448    0.00032504
     atom   47 type  3   force =     0.00004474    0.00007110    0.00007442
     atom   48 type  3   force =     0.00023494   -0.00009536   -0.00057461
     atom   49 type  2   force =     0.00064718   -0.00060149   -0.00086108
     atom   50 type  3   force =    -0.00002727   -0.00021610    0.00019634
     atom   51 type  3   force =     0.00022367    0.00007475    0.00048838
     atom   52 type  3   force =     0.00017062   -0.00004392    0.00029176
     atom   53 type  2   force =     0.00053184   -0.00017362   -0.00031107
     atom   54 type  3   force =     0.00021238   -0.00001574   -0.00070879
     atom   55 type  3   force =     0.00009101   -0.00000191   -0.00013334
     atom   56 type  2   force =    -0.00004638   -0.00018005    0.00048220
     atom   57 type  3   force =     0.00014077   -0.00018527    0.00014230
     atom   58 type  2   force =     0.00041471   -0.00003782   -0.00047049
     atom   59 type  3   force =    -0.00025816    0.00031940   -0.00037258
     atom   60 type  3   force =    -0.00007751    0.00009519    0.00029261
     atom   61 type  2   force =     0.00025069    0.00061798   -0.00017190
     atom   62 type  3   force =    -0.00005002   -0.00005655    0.00015715
     atom   63 type  2   force =     0.00034804    0.00002743    0.00028548
     atom   64 type  2   force =     0.00053336    0.00023896    0.00015420
     atom   65 type  3   force =     0.00008487    0.00023600   -0.00032753
     atom   66 type  2   force =     0.00012629    0.00055844   -0.00040246
     atom   67 type  2   force =    -0.00037192   -0.00007398    0.00007362
     atom   68 type  2   force =    -0.00003512   -0.00003799    0.00030882
     atom   69 type  2   force =     0.00056324    0.00040976    0.00034436
     atom   70 type  3   force =     0.00026634    0.00002400   -0.00034200
     atom   71 type  2   force =     0.00063862   -0.00018906   -0.00056993
     atom   72 type  2   force =     0.00018505   -0.00057416   -0.00118324
     atom   73 type  3   force =    -0.00007674   -0.00031869   -0.00034949
     atom   74 type  2   force =     0.00019948   -0.00018208    0.00035892
     atom   75 type  2   force =     0.00003093   -0.00042038    0.00081080
     atom   76 type  3   force =    -0.00038562   -0.00001525    0.00058896
     atom   77 type  3   force =    -0.00010403   -0.00011864   -0.00032153
     atom   78 type  2   force =    -0.00051170   -0.00026103   -0.00061197
     atom   79 type  3   force =    -0.00023367   -0.00021943   -0.00058008
     atom   80 type  2   force =    -0.00016347    0.00004446    0.00025177
     atom   81 type  3   force =    -0.00004991   -0.00001874    0.00066711
     atom   82 type  3   force =    -0.00018171   -0.00008932    0.00063620
     atom   83 type  3   force =     0.00000591   -0.00008907    0.00034417
     atom   84 type  2   force =    -0.00037476    0.00038613   -0.00025189
     atom   85 type  3   force =    -0.00013876    0.00003635   -0.00041050
     atom   86 type  2   force =    -0.00026154    0.00026596    0.00011194
     atom   87 type  3   force =    -0.00008175   -0.00003495    0.00036190
     atom   88 type  3   force =     0.00011829    0.00016097    0.00039950
     atom   89 type  1   force =    -0.00001544    0.00002883    0.00010985
     atom   90 type  3   force =    -0.00022269    0.00012314    0.00001857
     atom   91 type  2   force =    -0.00049101    0.00049567   -0.00049580
     atom   92 type  2   force =    -0.00065726   -0.00008820   -0.00065353
     atom   93 type  2   force =    -0.00050051    0.00014963   -0.00019388
     atom   94 type  2   force =    -0.00019806    0.00033988    0.00108204
     atom   95 type  2   force =     0.00015716    0.00044634    0.00095263
     atom   96 type  3   force =    -0.00012412    0.00006432    0.00009483
     atom   97 type  3   force =    -0.00022331   -0.00017714   -0.00047975
     atom   98 type  2   force =    -0.00014935   -0.00043260   -0.00068716
     atom   99 type  2   force =    -0.00030047   -0.00040924   -0.00046126
     atom  100 type  3   force =    -0.00012942   -0.00000099    0.00017707

     Total force =     0.882922     Total SCF correction =     0.006061

     Writing output data file Zr49Cu49Al2.save
 
     init_run     :     37.77s CPU     38.67s WALL (       1 calls)
     electrons    :   6222.64s CPU   6325.73s WALL (       1 calls)
     forces       :     24.02s CPU     24.73s WALL (       1 calls)

     Called by init_run:
     wfcinit      :     31.57s CPU     31.93s WALL (       1 calls)
     wfcinit:atom :      0.06s CPU      0.10s WALL (       1 calls)
     wfcinit:wfcr :     31.24s CPU     31.49s WALL (       1 calls)
     potinit      :      1.18s CPU      1.25s WALL (       1 calls)

     Called by electrons:
     c_bands      :   5330.58s CPU   5390.93s WALL (      54 calls)
     sum_band     :    756.27s CPU    778.09s WALL (      54 calls)
     v_of_rho     :     21.43s CPU     22.20s WALL (      55 calls)
     v_h          :      2.05s CPU      2.12s WALL (      55 calls)
     v_xc         :     19.73s CPU     20.44s WALL (      56 calls)
     newd         :     97.28s CPU    116.37s WALL (      55 calls)
     PAW_pot      :      9.65s CPU     10.03s WALL (      55 calls)
     mix_rho      :      5.46s CPU      5.79s WALL (      54 calls)

     Called by c_bands:
     init_us_2    :      9.65s CPU      9.74s WALL (     109 calls)
     cegterg      :   5089.56s CPU   5142.28s WALL (      54 calls)

     Called by sum_band:
     sum_band:bec :      1.49s CPU      1.50s WALL (      54 calls)
     addusdens    :    126.57s CPU    144.97s WALL (      54 calls)

     Called by *egterg:
     h_psi        :   2077.15s CPU   2087.25s WALL (     151 calls)
     s_psi        :    446.29s CPU    447.89s WALL (     151 calls)
     g_psi        :      2.88s CPU      2.89s WALL (      96 calls)
     cdiaghg      :   1157.96s CPU   1174.11s WALL (     150 calls)
     cegterg:over :    584.08s CPU    587.43s WALL (      96 calls)
     cegterg:upda :    317.78s CPU    319.47s WALL (      96 calls)
     cegterg:last :    281.80s CPU    282.09s WALL (      54 calls)
     cdiaghg:chol :     57.90s CPU     58.47s WALL (     150 calls)
     cdiaghg:inve :     69.75s CPU     70.20s WALL (     150 calls)
     cdiaghg:para :    167.87s CPU    174.72s WALL (     300 calls)

     Called by h_psi:
     h_psi:pot    :   2071.39s CPU   2081.48s WALL (     151 calls)
     h_psi:calbec :    463.99s CPU    465.19s WALL (     151 calls)
     vloc_psi     :   1169.92s CPU   1177.52s WALL (     151 calls)
     add_vuspsi   :    437.47s CPU    438.77s WALL (     151 calls)

     General routines
     calbec       :    702.21s CPU    703.98s WALL (     209 calls)
     fft          :     26.85s CPU     28.04s WALL (     887 calls)
     ffts         :      0.71s CPU      0.74s WALL (     109 calls)
     fftw         :   1060.21s CPU   1067.38s WALL (  302220 calls)
     interpolate  :      4.39s CPU      4.65s WALL (     109 calls)
 
     Parallel routines
     fft_scatt_xy :     96.21s CPU     96.71s WALL (  303216 calls)
     fft_scatt_yz :    193.80s CPU    196.31s WALL (  303216 calls)

     PAW routines
     PAW_pot      :      9.65s CPU     10.03s WALL (      55 calls)
 
     PWSCF        :     1h44m CPU        1h51m WALL

 
   This run was terminated on:  18:49:15  19Apr2019            

=------------------------------------------------------------------------------=
   JOB DONE.
=------------------------------------------------------------------------------=
