  COHP#  atomMU  atomNU     distance     translation      ICOHP (at) eF   for spin  1
      1     Cu1     Zr2      3.47091       0   0   0           -0.24006 
      2     Cu1     Cu3      1.99013       0   0   0           -1.57849 
      3     Cu1     Cu7      3.21371       0   0   1           -0.06658 
      4     Cu1     Cu8      2.08251       0   0   0           -1.34611 
      5     Cu1     Zr9      2.92553       0   0   0           -0.69978 
      6     Cu1    Cu10      3.12585       0   0   0           -0.08511 
      7     Cu1    Zr11      3.32991       0   0   0           -0.26912 
      8     Cu1    Zr13      4.08005       0   0   1           -0.05354 
      9     Cu1    Cu15      3.29327       0   0   1           -0.04208 
     10     Cu1    Zr23      3.93891       0   1   0           -0.14171 
     11     Cu1    Zr26      2.76434       0   0   0           -1.09104 
     12     Cu1    Cu28      3.66839       0   0   0           -0.01607 
     13     Cu1    Zr32      3.52519       0   0   1           -0.18883 
     14     Cu1    Zr38      4.19562       0   0   1           -0.08857 
     15     Cu1    Zr76      3.04237       1   0   0           -0.62198 
     16     Cu1    Cu78      3.73908       1   0   0           -0.01145 
     17     Cu1    Zr82      2.29075       1   0   0           -3.06445 
     18     Zr2     Cu3      3.50248       0   0   0           -0.21525 
     19     Zr2     Cu7      2.77661       0   0   1           -1.00815 
     20     Zr2    Cu17      3.98486       0   1   0           -0.10469 
     21     Zr2    Cu21      3.90313       0   1   0           -0.12556 
     22     Zr2    Cu22      2.61198       0   1   0           -1.75904 
     23     Zr2    Zr23      2.96830       0   1   0           -2.27492 
     24     Zr2    Zr26      3.71221       0   0   0           -0.59408 
     25     Zr2    Cu27      3.14340       0   0   0           -0.42798 
     26     Zr2    Cu28      3.40465       0   0   0           -0.26760 
     27     Zr2    Zr32      2.65162       0   0   1           -4.59855 
     28     Zr2    Zr40      4.09556       0   1   0           -0.33817 
     29     Zr2    Cu45      3.44383       0   1   0           -0.24856 
     30     Zr2    Zr46      3.19576       0   1   0           -1.39797 
     31     Zr2    Zr47      2.78038       0   1   0           -3.36645 
     32     Zr2    Zr50      3.76771       0   1   1           -0.44994 
     33     Zr2    Zr76      3.11530       1   0   0           -1.62327 
     34     Cu3     Cu4      2.90068       0   0   0           -0.23734 
     35     Cu3     Cu8      3.59296       0   0   0           -0.00625 
     36     Cu3     Zr9      2.88226       0   0   0           -0.79642 
     37     Cu3    Cu10      2.69305       0   0   0           -0.39201 
     38     Cu3    Zr11      4.13763       0   0   0           -0.05130 
     39     Cu3    Zr23      2.48728       0   1   0           -2.06283 
     40     Cu3    Cu25      3.94746       0   1   0           -0.02021 
     41     Cu3    Zr26      2.82202       0   0   0           -1.03715 
     42     Cu3    Cu28      2.41504       0   0   0           -0.59606 
     43     Cu3    Zr29      3.38042       0   0   0           -0.35013 
     44     Cu3    Zr48      3.81666       0   1   0           -0.16497 
     45     Cu3    Zr76      3.35224       1   0   0           -0.28353 
     46     Cu3    Cu78      2.70148       1   0   0           -0.34450 
     47     Cu3    Zr82      3.93950       1   0   0           -0.11739 
     48     Cu3    Zr97      4.18968       1   1   0           -0.07642 
     49     Cu4     Zr5      2.53397       0   0   0           -1.81646 
     50     Cu4     Cu6      2.63666       0   0   0           -0.41193 
     51     Cu4     Zr9      3.61623       0   0   0           -0.24311 
     52     Cu4    Cu10      3.78907       0   0   0           -0.04703 
     53     Cu4    Zr23      3.31572       0   1   0           -0.34774 
     54     Cu4    Cu24      3.29478       0   1   0           -0.05679 
     55     Cu4    Cu25      2.47495       0   1   0           -0.62094 
     56     Cu4    Cu28      3.99964       0   0   0           -0.00322 
     57     Cu4    Zr29      2.74712       0   0   0           -1.17276 
     58     Cu4    Zr48      3.69721       0   1   0           -0.16568 
     59     Cu4    Zr50      3.87338       0   1   0           -0.11166 
     60     Cu4    Cu78      2.37028       1   0   0           -0.81877 
     61     Cu4    Zr79      3.38501       1   0   0           -0.28552 
     62     Cu4    Zr85      3.09867       1   0   0           -0.55691 
     63     Cu4    Zr97      2.98563       1   1   0           -0.64659 
     64     Cu4    Cu99      4.17844       1   1   0           -0.00389 
     65     Zr5     Cu6      2.97515       0   0   0           -0.68616 
     66     Zr5     Cu7      3.08109       0   0   0           -0.47404 
     67     Zr5    Zr13      3.34480       0   0   0           -1.17496 
     68     Zr5    Cu21      2.06405       0   1  -1           -5.05679 
     69     Zr5    Cu24      3.09445       0   1   0           -0.50266 
     70     Zr5    Cu25      3.73953       0   1   0           -0.16805 
     71     Zr5    Zr29      4.18036       0   0   0           -0.34351 
     72     Zr5    Zr50      3.22645       0   1   0           -1.41097 
     73     Zr5    Zr55      4.14538       1   0   0           -0.24023 
     74     Zr5    Cu78      4.09312       1   0   0           -0.05909 
     75     Zr5    Zr79      3.17570       1   0   0           -1.47248 
     76     Zr5    Cu80      2.94766       1   0   0           -0.67530 
     77     Zr5    Zr81      3.14174       1   0   0           -1.58955 
     78     Zr5    Zr85      3.13727       1   0   0           -1.64820 
     79     Zr5    Cu94      3.89626       1   1  -1           -0.24535 
     80     Zr5    Zr97      4.00906       1   1   0           -0.35096 
     81     Zr5    Cu99      3.13322       1   1   0           -0.41051 
     82     Zr5   Zr100      3.62588       1   1   0           -0.71625 
     83     Cu6     Cu7      3.61256       0   0   0           -0.04336 
     84     Cu6    Zr13      3.27970       0   0   0           -0.32035 
     85     Cu6    Cu21      3.72742       0   1  -1           -0.02840 
     86     Cu6    Cu24      4.16565       0   1   0           -0.00126 
     87     Cu6    Cu25      3.14639       0   1   0           -0.07440 
     88     Cu6    Zr29      2.34641       0   0   0           -2.81382 
     89     Cu6    Cu30      2.61118       0   0   0           -0.36378 
     90     Cu6    Zr31      2.90149       0   0   0           -0.62747 
     91     Cu6    Zr32      3.60693       0   0   0           -0.18574 
     92     Cu6    Zr48      3.17131       0   1   0           -0.48662 
     93     Cu6    Cu49      3.64836       0   1   0           -0.02245 
     94     Cu6    Zr50      2.18644       0   1   0           -4.00428 
     95     Cu6    Zr54      3.74018       0   0   0           -0.14185 
     96     Cu6    Zr85      4.09630       1   0   0           -0.06687 
     97     Cu7     Cu8      4.14685       0   0  -1           -0.00068 
     98     Cu7    Zr13      2.21428       0   0   0           -3.54784 
     99     Cu7    Cu21      2.63837       0   1  -1           -0.37258 
    100     Cu7    Cu22      3.55998       0   1  -1           -0.04183 
    101     Cu7    Cu30      3.97796       0   0   0           -0.02162 
    102     Cu7    Zr32      2.68481       0   0   0           -1.11586 
    103     Cu7    Zr50      3.50410       0   1   0           -0.22409 
    104     Cu7    Zr76      2.53376       1   0  -1           -1.67140 
    105     Cu7    Cu80      3.40945       1   0   0           -0.06117 
    106     Cu7    Zr81      3.01054       1   0   0           -0.56133 
    107     Cu7    Zr82      3.22666       1   0  -1           -0.34866 
    108     Cu7    Cu86      4.01462       1   0   0           -0.01578 
    109     Cu7    Cu94      4.15241       1   1  -1           -0.01049 
    110     Cu8    Cu10      3.39338       0   0   0           -0.02756 
    111     Cu8    Zr11      3.07432       0   0   0           -0.56155 
    112     Cu8    Zr13      3.98963       0   0   1           -0.06524 
    113     Cu8    Cu15      2.40081       0   0   1           -0.67326 
    114     Cu8    Zr19      4.04278       0   0   1           -0.06035 
    115     Cu8    Zr26      2.42332       0   0   0           -2.10429 
    116     Cu8    Zr32      3.29632       0   0   1           -0.35797 
    117     Cu8    Zr33      2.99752       0   0   0           -0.56952 
    118     Cu8    Al34      3.62826       0   0   0           -0.17207 
    119     Cu8    Zr38      2.31077       0   0   1           -2.88604 
    120     Cu8    Cu39      2.81388       0   0   0           -0.20156 
    121     Cu8    Zr82      3.27896       1   0   0           -0.47973 
    122     Zr9    Cu10      2.95648       0   0   0           -0.90971 
    123     Zr9    Zr11      2.88750       0   0   0           -2.70312 
    124     Zr9    Zr12      4.04214       0   0   0           -0.31544 
    125     Zr9    Zr52      4.12667       1   0   0           -0.29179 
    126     Zr9    Cu75      3.12187       1   0   0           -0.53929 
    127     Zr9    Zr76      4.10074       1   0   0           -0.29668 
    128     Zr9    Zr77      2.95431       1   0   0           -2.03530 
    129     Zr9    Cu78      2.26379       1   0   0           -3.32971 
    130     Zr9    Zr79      3.89174       1   0   0           -0.49534 
    131     Zr9    Zr82      3.14611       1   0   0           -1.62697 
    132     Zr9    Zr83      2.77065       1   0   0           -3.13726 
    133     Zr9    Cu84      4.19155       1   0   0           -0.06263 
    134     Zr9    Zr85      3.32106       1   0   0           -1.15835 
    135     Zr9    Zr87      3.85049       1   0   0           -0.35421 
    136    Cu10    Zr11      2.43643       0   0   0           -2.03486 
    137    Cu10    Zr12      3.51034       0   0   0           -0.22741 
    138    Cu10    Zr26      3.13972       0   0   0           -0.41365 
    139    Cu10    Cu28      3.74610       0   0   0           -0.01183 
    140    Cu10    Zr29      2.34383       0   0   0           -2.97435 
    141    Cu10    Al34      2.56292       0   0   0           -1.43431 
    142    Cu10    Cu35      2.69322       0   0   0           -0.12443 
    143    Cu10    Cu36      3.03508       0   0   0           -0.07059 
    144    Cu10    Cu39      3.41035       0   0   0           -0.02173 
    145    Cu10    Zr40      4.09104       0   0   0           -0.02385 
    146    Cu10    Cu78      4.16483       1   0   0           -0.00825 
    147    Cu10    Zr85      3.77628       1   0   0           -0.18060 
    148    Zr11    Zr12      3.47463       0   0   0           -0.62646 
    149    Zr11    Cu15      2.75601       0   0   1           -1.17070 
    150    Zr11    Zr16      2.79155       0   0   0           -3.10959 
    151    Zr11    Cu20      4.11751       0   0   1           -0.06887 
    152    Zr11    Al34      3.43234       0   0   0           -1.05079 
    153    Zr11    Cu36      4.07045       0   0   0           -0.05732 
    154    Zr11    Cu39      2.65773       0   0   0           -1.22019 
    155    Zr11    Zr40      3.80799       0   0   0           -0.30699 
    156    Zr11    Zr82      3.64412       1   0   0           -0.70474 
    157    Zr11    Zr83      3.21189       1   0   0           -1.06114 
    158    Zr11    Zr87      2.87078       1   0   0           -2.42166 
    159    Zr11    Al89      3.34442       1   0   0           -0.87230 
    160    Zr12    Zr14      2.91795       0   0   0           -2.56006 
    161    Zr12    Cu17      3.11840       0   0   0           -0.36687 
    162    Zr12    Cu18      3.77468       0   0   0           -0.11945 
    163    Zr12    Cu22      4.04095       0   0   0           -0.02456 
    164    Zr12    Zr29      4.14662       0   0   0           -0.30031 
    165    Zr12    Cu36      2.65516       0   0   0           -1.30887 
    166    Zr12    Zr40      3.02177       0   0   0           -1.75713 
    167    Zr12    Zr83      3.42156       1   0   0           -0.75002 
    168    Zr12    Cu84      3.07702       1   0   0           -0.48855 
    169    Zr12    Zr85      2.78739       1   0   0           -3.58851 
    170    Zr12    Al89      2.40890       1   0   0           -4.28701 
    171    Zr12    Zr90      3.30615       1   0   0           -0.93220 
    172    Zr12    Cu91      3.01111       1   0   0           -0.63390 
    173    Zr13    Zr14      2.59368       0   0   0           -5.16872 
    174    Zr13    Cu15      3.96592       0   0   0           -0.06347 
    175    Zr13    Cu21      4.15263       0   1  -1           -0.09101 
    176    Zr13    Zr29      3.69534       0   0   0           -0.61809 
    177    Zr13    Cu30      2.93988       0   0   0           -0.70964 
    178    Zr13    Zr32      3.00532       0   0   0           -2.15788 
    179    Zr13    Zr38      3.78752       0   0   0           -0.40673 
    180    Zr13    Cu80      2.98692       1   0   0           -0.60079 
    181    Zr13    Zr81      3.96095       1   0   0           -0.45587 
    182    Zr13    Zr82      3.47804       1   0  -1           -0.86938 
    183    Zr13    Zr85      3.09512       1   0   0           -1.82837 
    184    Zr13    Cu86      2.87208       1   0   0           -0.87560 
    185    Zr13    Cu91      3.95675       1   0   0           -0.07344 
    186    Zr14    Cu15      3.43649       0   0   0           -0.29785 
    187    Zr14    Cu17      3.71289       0   0   0           -0.11364 
    188    Zr14    Cu18      2.91014       0   0   0           -0.82845 
    189    Zr14    Zr19      3.81900       0   0   0           -0.39450 
    190    Zr14    Cu20      3.91067       0   0   0           -0.09682 
    191    Zr14    Cu30      3.67700       0   0   0           -0.15032 
    192    Zr14    Cu36      2.70323       0   0   0           -1.19612 
    193    Zr14    Zr37      3.29212       0   0   0           -1.06800 
    194    Zr14    Zr38      2.89611       0   0   0           -2.64996 
    195    Zr14    Zr40      4.02328       0   0   0           -0.36640 
    196    Zr14    Zr42      3.08614       0   0   0           -1.79395 
    197    Zr14    Cu43      4.17972       0   0   0           -0.05863 
    198    Zr14    Zr85      3.74089       1   0   0           -0.48216 
    199    Zr14    Cu86      2.94580       1   0   0           -0.74152 
    200    Zr14    Cu91      3.07980       1   0   0           -0.60719 
    201    Cu15    Zr16      3.55271       0   0  -1           -0.17893 
    202    Cu15    Cu18      3.56566       0   0   0           -0.01376 
    203    Cu15    Zr19      2.75598       0   0   0           -1.07724 
    204    Cu15    Cu20      2.26827       0   0   0           -0.83625 
    205    Cu15    Cu24      4.00066       0   0   0           -0.00444 
    206    Cu15    Zr38      2.88573       0   0   0           -0.81734 
    207    Cu15    Cu39      3.32538       0   0  -1           -0.05479 
    208    Cu15    Zr82      2.63272       1   0  -1           -1.41656 
    209    Cu15    Cu86      2.62544       1   0   0           -0.33293 
    210    Cu15    Zr87      2.98562       1   0  -1           -0.60406 
    211    Cu15    Cu91      4.06982       1   0   0           -0.00900 
    212    Cu15    Cu93      4.16965       1   0   0           -0.00228 
    213    Zr16    Zr19      3.22974       0   0   1           -1.48973 
    214    Zr16    Cu20      3.58441       0   0   1           -0.15415 
    215    Zr16    Cu21      2.95338       0   0   0           -0.64852 
    216    Zr16    Cu22      3.55008       0   0   0           -0.11705 
    217    Zr16    Cu24      2.54081       0   0   1           -1.79142 
    218    Zr16    Cu25      3.87200       0   0   1           -0.12893 
    219    Zr16    Cu39      3.02912       0   0   0           -0.70131 
    220    Zr16    Zr40      3.56647       0   0   0           -0.60374 
    221    Zr16    Zr44      3.89069       0   0   1           -0.45724 
    222    Zr16    Cu45      2.97646       0   0   0           -0.61673 
    223    Zr16    Zr50      2.95944       0   0   1           -2.50437 
    224    Zr16    Zr87      3.16779       1   0   0           -1.24328 
    225    Zr16    Al89      2.89843       1   0   0           -1.89136 
    226    Zr16    Cu94      3.05862       1   0   0           -0.30939 
    227    Zr16   Zr100      3.35624       1   0   1           -1.07801 
    228    Cu17    Cu18      2.10347       0   0   0           -1.30222 
    229    Cu17    Cu22      2.16497       0   0   0           -0.90067 
    230    Cu17    Zr23      2.90903       0   0   0           -0.86252 
    231    Cu17    Cu36      4.06641       0   0   0           -0.01090 
    232    Cu17    Zr40      3.08426       0   0   0           -0.57889 
    233    Cu17    Zr42      2.84850       0   0   0           -0.89941 
    234    Cu17    Zr76      3.78993       1  -1   0           -0.11038 
    235    Cu17    Al89      2.83329       1   0   0           -0.80891 
    236    Cu17    Zr90      2.74108       1   0   0           -0.90908 
    237    Cu17    Cu91      3.60185       1   0   0           -0.02583 
    238    Cu17    Cu94      3.55720       1   0   0           -0.00258 
    239    Cu17    Zr96      2.89624       1   0   0           -0.70073 
    240    Cu17    Zr97      3.53615       1   0   0           -0.24951 
    241    Cu18    Zr19      2.92124       0   0   0           -0.79555 
    242    Cu18    Cu20      2.27120       0   0   0           -1.00661 
    243    Cu18    Zr23      3.48369       0   0   0           -0.18927 
    244    Cu18    Cu24      3.46351       0   0   0           -0.00118 
    245    Cu18    Cu25      3.58277       0   0   0           -0.02283 
    246    Cu18    Zr42      2.73628       0   0   0           -1.00430 
    247    Cu18    Cu86      3.41822       1   0   0           -0.01995 
    248    Cu18    Zr90      3.02690       1   0   0           -0.69827 
    249    Cu18    Cu91      2.67067       1   0   0           -0.38951 
    250    Cu18    Cu92      2.95722       1   0   0           -0.15199 
    251    Cu18    Cu93      4.00991       1   0   0           -0.00548 
    252    Cu18    Zr96      3.83744       1   0   0           -0.10284 
    253    Cu18    Zr97      2.85505       1   0   0           -0.89799 
    254    Zr19    Cu20      2.92996       0   0   0           -0.73247 
    255    Zr19    Zr23      4.13524       0   0   0           -0.30611 
    256    Zr19    Cu24      2.81050       0   0   0           -0.92030 
    257    Zr19    Cu25      2.47138       0   0   0           -1.81489 
    258    Zr19    Zr38      2.99060       0   0   0           -2.13876 
    259    Zr19    Cu39      3.29205       0   0  -1           -0.52032 
    260    Zr19    Zr42      2.75516       0   0   0           -3.62798 
    261    Zr19    Cu43      3.09478       0   0   0           -0.48718 
    262    Zr19    Zr44      3.13642       0   0   0           -1.58222 
    263    Zr19    Zr48      4.11647       0   0   0           -0.40771 
    264    Zr19    Cu49      2.78294       0   0   0           -0.93807 
    265    Zr19    Zr50      4.06293       0   0   0           -0.30323 
    266    Zr19    Zr97      4.03697       1   0   0           -0.38841 
    267    Cu20    Cu24      2.63436       0   0   0           -0.38052 
    268    Cu20    Cu25      4.01729       0   0   0            0.00120 
    269    Cu20    Zr82      3.89301       1   0  -1           -0.13029 
    270    Cu20    Cu86      2.73054       1   0   0           -0.35848 
    271    Cu20    Zr87      2.53761       1   0  -1           -1.77130 
    272    Cu20    Cu91      3.09507       1   0   0           -0.08412 
    273    Cu20    Cu92      2.23972       1   0   0           -0.90324 
    274    Cu20    Cu93      2.58089       1   0   0           -0.34696 
    275    Cu20    Zr97      3.35547       1   0   0           -0.36613 
    276    Cu20   Zr100      3.45432       1   0   0           -0.20223 
    277    Cu21    Cu22      2.78328       0   0   0           -0.29190 
    278    Cu21    Cu24      3.24168       0   0   1           -0.06012 
    279    Cu21    Cu45      3.90914       0   0   0           -0.01380 
    280    Cu21    Zr50      2.66670       0   0   1           -1.33650 
    281    Cu21    Zr76      3.44513       1  -1   0           -0.30006 
    282    Cu21    Cu80      4.02318       1  -1   1           -0.01793 
    283    Cu21    Zr81      3.01696       1  -1   1           -0.60673 
    284    Cu21    Al89      3.61671       1   0   0           -0.14835 
    285    Cu21    Cu94      2.10153       1   0   0           -1.43697 
    286    Cu21    Cu95      3.25847       1   0   0           -0.02782 
    287    Cu21    Cu99      3.89936       1   0   1           -0.01612 
    288    Cu21   Zr100      3.24748       1   0   1           -0.34378 
    289    Cu22    Zr23      3.41002       0   0   0           -0.32631 
    290    Cu22    Zr40      2.72194       0   0   0           -0.98833 
    291    Cu22    Zr42      4.05260       0   0   0           -0.04594 
    292    Cu22    Cu45      3.09304       0   0   0           -0.13636 
    293    Cu22    Zr47      3.83720       0   0   0           -0.13321 
    294    Cu22    Zr50      3.75361       0   0   1           -0.15023 
    295    Cu22    Zr76      2.91540       1  -1   0           -0.87678 
    296    Cu22    Al89      2.54382       1   0   0           -1.44841 
    297    Cu22    Zr90      4.11154       1   0   0           -0.00530 
    298    Cu22    Cu94      2.42174       1   0   0           -0.30985 
    299    Cu22    Cu95      4.12726       1   0   0           -0.00358 
    300    Cu22    Zr96      3.39259       1   0   0           -0.25336 
    301    Zr23    Cu25      2.66147       0   0   0           -1.37745 
    302    Zr23    Cu28      2.87700       0  -1   0           -0.81370 
    303    Zr23    Zr42      3.03745       0   0   0           -1.94307 
    304    Zr23    Zr47      3.50032       0   0   0           -0.77896 
    305    Zr23    Zr48      3.39075       0   0   0           -1.07037 
    306    Zr23    Zr76      3.27369       1  -1   0           -1.25111 
    307    Zr23    Cu78      3.32433       1  -1   0           -0.37379 
    308    Zr23    Zr96      3.83910       1   0   0           -0.46311 
    309    Zr23    Zr97      2.93471       1   0   0           -2.49543 
    310    Cu24    Cu25      2.23172       0   0   0           -0.83672 
    311    Cu24    Zr50      3.39437       0   0   0           -0.30997 
    312    Cu24    Zr87      3.67877       1   0  -1           -0.16750 
    313    Cu24    Cu92      3.08651       1   0   0           -0.08409 
    314    Cu24    Cu94      4.14418       1   0  -1           -0.00630 
    315    Cu24    Zr97      2.42678       1   0   0           -2.28124 
    316    Cu24    Cu99      3.23751       1   0   0           -0.07388 
    317    Cu24   Zr100      2.63565       1   0   0           -1.31291 
    318    Cu25    Cu28      3.86186       0  -1   0           -0.02186 
    319    Cu25    Zr42      3.47164       0   0   0           -0.21766 
    320    Cu25    Zr44      4.19869       0   0   0           -0.07623 
    321    Cu25    Zr48      2.68117       0   0   0           -1.24930 
    322    Cu25    Cu49      2.67177       0   0   0           -0.34786 
    323    Cu25    Zr50      3.18272       0   0   0           -0.44133 
    324    Cu25    Cu78      4.00850       1  -1   0           -0.00241 
    325    Cu25    Zr97      2.81307       1   0   0           -0.90062 
    326    Zr26    Cu27      2.81938       0   0   0           -0.97374 
    327    Zr26    Cu28      2.20661       0   0   0           -3.50220 
    328    Zr26    Zr32      3.39143       0   0   1           -1.10017 
    329    Zr26    Zr33      2.92350       0   0   0           -2.41493 
    330    Zr26    Al34      3.34734       0   0   0           -0.86576 
    331    Zr26    Cu35      3.43581       0   0   0           -0.17842 
    332    Zr26    Zr38      4.09623       0   0   1           -0.44046 
    333    Zr26    Cu39      3.95456       0   0   0           -0.03774 
    334    Zr26    Zr51      3.56067       0   0   0           -0.80911 
    335    Zr26    Cu53      2.59286       0   0   0           -1.43312 
    336    Zr26    Zr57      3.51737       0   0   0           -0.81776 
    337    Cu27    Cu28      2.56690       0   0   0           -0.40967 
    338    Cu27    Zr32      3.48194       0   0   1           -0.22868 
    339    Cu27    Zr46      3.14495       0   1   0           -0.38424 
    340    Cu27    Zr47      2.73470       0   1   0           -1.13367 
    341    Cu27    Zr48      4.07440       0   1   0           -0.11093 
    342    Cu27    Zr51      2.41662       0   0   0           -2.31383 
    343    Cu27    Zr52      3.11119       0   0   0           -0.47409 
    344    Cu27    Cu53      2.90448       0   0   0           -0.18465 
    345    Cu27    Cu64      3.89932       0   1   0           -0.00418 
    346    Cu27    Cu69      2.57614       0   1   0           -0.45553 
    347    Cu27    Zr70      2.66714       0   1   0           -1.37959 
    348    Cu27    Cu71      4.02899       0   1   0           -0.01244 
    349    Cu28    Zr29      3.59338       0   0   0           -0.16936 
    350    Cu28    Cu35      3.79249       0   0   0           -0.00521 
    351    Cu28    Zr47      3.52618       0   1   0           -0.21527 
    352    Cu28    Zr48      2.19877       0   1   0           -4.00552 
    353    Cu28    Cu53      2.48472       0   0   0           -0.46180 
    354    Cu28    Zr54      4.08955       0   0   0           -0.06160 
    355    Cu28    Zr70      3.35797       0   1   0           -0.31970 
    356    Cu28    Cu71      4.02645       0   1   0           -0.02137 
    357    Zr29    Cu30      2.86329       0   0   0           -0.89942 
    358    Zr29    Zr31      4.16519       0   0   0           -0.27333 
    359    Zr29    Al34      3.84101       0   0   0           -0.67705 
    360    Zr29    Cu35      2.50637       0   0   0           -1.95983 
    361    Zr29    Cu36      3.16439       0   0   0           -0.44713 
    362    Zr29    Zr37      3.93325       0   0   0           -0.48300 
    363    Zr29    Zr48      3.53358       0   1   0           -0.82763 
    364    Zr29    Cu53      4.14540       0   0   0           -0.04411 
    365    Zr29    Zr54      3.30331       0   0   0           -1.24921 
    366    Zr29    Zr85      3.37712       1   0   0           -1.18236 
    367    Cu30    Zr31      2.82475       0   0   0           -0.91943 
    368    Cu30    Zr32      2.43516       0   0   0           -2.20664 
    369    Cu30    Cu35      3.69845       0   0   0           -0.05439 
    370    Cu30    Cu36      3.83852       0   0   0           -0.03700 
    371    Cu30    Zr37      2.50807       0   0   0           -1.80898 
    372    Cu30    Zr38      3.73891       0   0   0           -0.10472 
    373    Cu30    Zr46      4.17366       0   1  -1           -0.08195 
    374    Cu30    Zr50      4.11673       0   1   0           -0.10097 
    375    Cu30    Zr54      2.94895       0   0   0           -0.69560 
    376    Cu30    Zr55      4.01385       0   0   0           -0.07728 
    377    Cu30    Cu58      4.13800       0   0   0           -0.00987 
    378    Cu30    Cu61      2.50333       0   0   0           -0.42759 
    379    Zr31    Zr32      3.56894       0   0   0           -0.66331 
    380    Zr31    Zr44      4.16695       0   1   0           -0.24715 
    381    Zr31    Cu45      4.17415       0   1  -1           -0.09309 
    382    Zr31    Zr46      2.49119       0   1  -1           -6.32920 
    383    Zr31    Zr48      3.47938       0   1   0           -0.90471 
    384    Zr31    Cu49      3.39315       0   1   0           -0.23335 
    385    Zr31    Zr50      3.25959       0   1   0           -1.22759 
    386    Zr31    Zr51      4.13248       0   0  -1           -0.26377 
    387    Zr31    Zr54      2.60967       0   0   0           -4.78530 
    388    Zr31    Zr55      2.79514       0   0   0           -2.66608 
    389    Zr31    Cu61      3.69588       0   0   0           -0.15484 
    390    Zr31    Cu68      3.55525       0   1  -1           -0.22389 
    391    Zr31    Cu72      3.01585       0   1   0           -0.56223 
    392    Zr31    Zr73      4.06258       0   1   0           -0.29583 
    393    Zr31    Cu74      2.68436       0   1   0           -0.95289 
    394    Zr32    Zr38      3.62545       0   0   0           -0.70727 
    395    Zr32    Zr46      3.19226       0   1  -1           -1.36039 
    396    Zr32    Zr50      3.85925       0   1   0           -0.39515 
    397    Zr32    Zr51      3.28642       0   0  -1           -1.23655 
    398    Zr32    Cu61      3.07578       0   0   0           -0.52339 
    399    Zr33    Al34      3.14306       0   0   0           -1.17844 
    400    Zr33    Zr38      2.89684       0   0   1           -2.65325 
    401    Zr33    Cu39      2.97376       0   0   0           -0.48563 
    402    Zr33    Cu43      3.87148       0   0   1           -0.11198 
    403    Zr33    Zr44      3.41070       0   0   1           -0.93539 
    404    Zr33    Zr51      3.52662       0   0   0           -0.79753 
    405    Zr33    Cu53      3.89695       0   0   0           -0.11084 
    406    Zr33    Cu56      2.97517       0   0   0           -0.67864 
    407    Zr33    Zr57      2.80255       0   0   0           -3.02756 
    408    Zr33    Zr60      3.35297       0   0   1           -1.11527 
    409    Zr33    Cu61      3.54384       0   0   1           -0.24391 