  COHP#  atomMU  atomNU     distance     translation      ICOHP (at) eF   for spin  1
      1     Cu1     Zr2      3.27131       0   0   0           -0.41233 
      2     Cu1     Cu3      2.47845       0   0   0           -0.48871 
      3     Cu1     Cu7      2.58314       0   0   1           -0.41579 
      4     Cu1     Cu8      2.42062       0   0   0           -0.60668 
      5     Cu1     Zr9      2.77439       0   0   0           -1.03919 
      6     Cu1    Cu10      2.60816       0   0   0           -0.33643 
      7     Cu1    Zr11      2.95140       0   0   0           -0.75057 
      8     Cu1    Cu15      4.09867       0   0   1           -0.00646 
      9     Cu1    Zr26      2.82247       0   0   0           -0.92953 
     10     Cu1    Zr32      3.23784       0   0   1           -0.40689 
     11     Cu1    Al34      4.13085       0   0   0           -0.01897 
     12     Cu1    Zr76      2.97976       1   0   0           -0.69264 
     13     Cu1    Zr82      2.52937       1   0   0           -1.70154 
     14     Zr2     Cu3      2.83483       0   0   0           -0.95390 
     15     Zr2     Cu7      3.26835       0   0   1           -0.40398 
     16     Zr2    Cu21      3.69746       0   1   0           -0.14898 
     17     Zr2    Cu22      2.65901       0   1   0           -1.58950 
     18     Zr2    Zr23      3.28375       0   1   0           -1.26239 
     19     Zr2    Zr26      3.25795       0   0   0           -1.37515 
     20     Zr2    Cu27      3.10182       0   0   0           -0.54397 
     21     Zr2    Cu28      2.96822       0   0   0           -0.68526 
     22     Zr2    Zr32      3.32614       0   0   1           -1.12974 
     23     Zr2    Cu45      2.82284       0   1   0           -0.93070 
     24     Zr2    Zr46      3.08285       0   1   0           -1.80638 
     25     Zr2    Zr47      3.25856       0   1   0           -1.31747 
     26     Zr2    Zr50      3.34178       0   1   1           -1.07933 
     27     Zr2    Zr76      3.14949       1   0   0           -1.63814 
     28     Cu3     Cu4      3.29463       0   0   0           -0.08196 
     29     Cu3     Zr9      2.90414       0   0   0           -0.76944 
     30     Cu3    Cu10      2.42370       0   0   0           -0.67669 
     31     Cu3    Cu22      4.02005       0   1   0           -0.01359 
     32     Cu3    Zr23      2.72700       0   1   0           -1.23331 
     33     Cu3    Zr26      3.09526       0   0   0           -0.58647 
     34     Cu3    Cu28      2.51594       0   0   0           -0.54121 
     35     Cu3    Zr29      2.92675       0   0   0           -0.79582 
     36     Cu3    Cu35      4.00204       0   0   0           -0.00124 
     37     Cu3    Zr76      2.97169       1   0   0           -0.67125 
     38     Cu3    Cu78      2.84573       1   0   0           -0.29061 
     39     Cu3    Zr85      4.04540       1   0   0           -0.07144 
     40     Cu4     Zr5      2.69715       0   0   0           -1.21883 
     41     Cu4     Cu6      2.64477       0   0   0           -0.39769 
     42     Cu4    Zr13      3.48770       0   0   0           -0.26005 
     43     Cu4    Zr23      2.68198       0   1   0           -1.30704 
     44     Cu4    Cu24      4.00996       0   1   0           -0.00151 
     45     Cu4    Cu25      2.65514       0   1   0           -0.34561 
     46     Cu4    Cu28      4.07313       0   0   0           -0.00639 
     47     Cu4    Zr29      2.80063       0   0   0           -1.14157 
     48     Cu4    Zr48      3.70935       0   1   0           -0.17014 
     49     Cu4    Cu78      2.51051       1   0   0           -0.52489 
     50     Cu4    Zr79      3.44922       1   0   0           -0.24731 
     51     Cu4    Cu80      4.07745       1   0   0           -0.01784 
     52     Cu4    Zr85      2.88832       1   0   0           -0.85318 
     53     Cu4    Zr97      2.75286       1   1   0           -1.07446 
     54     Zr5     Cu6      3.06719       0   0   0           -0.61752 
     55     Zr5     Cu7      2.73054       0   0   0           -1.06616 
     56     Zr5    Zr13      3.03065       0   0   0           -2.06972 
     57     Zr5    Cu21      2.60461       0   1  -1           -1.51630 
     58     Zr5    Cu24      2.77276       0   1   0           -1.07220 
     59     Zr5    Cu25      3.23050       0   1   0           -0.44279 
     60     Zr5    Zr50      3.49941       0   1   0           -0.86499 
     61     Zr5    Zr55      4.16582       1   0   0           -0.26769 
     62     Zr5    Zr79      3.37117       1   0   0           -1.08606 
     63     Zr5    Cu80      2.71929       1   0   0           -1.19372 
     64     Zr5    Zr81      2.92019       1   0   0           -2.46182 
     65     Zr5    Zr85      3.90709       1   0   0           -0.45413 
     66     Zr5    Zr97      3.21357       1   1   0           -1.43592 
     67     Zr5    Cu99      3.00404       1   1   0           -0.65082 
     68     Zr5   Zr100      3.91950       1   1   0           -0.43211 
     69     Cu6     Cu7      3.43901       0   0   0           -0.08589 
     70     Cu6    Zr13      2.80395       0   0   0           -0.96644 
     71     Cu6    Cu24      4.14040       0   1   0           -0.00407 
     72     Cu6    Cu25      2.57700       0   1   0           -0.41267 
     73     Cu6    Zr29      3.00478       0   0   0           -0.66211 
     74     Cu6    Cu30      2.38465       0   0   0           -0.64166 
     75     Cu6    Zr31      3.01963       0   0   0           -0.59920 
     76     Cu6    Zr32      3.12886       0   0   0           -0.47442 
     77     Cu6    Zr48      2.75471       0   1   0           -1.18667 
     78     Cu6    Cu49      3.42239       0   1   0           -0.03378 
     79     Cu6    Zr50      2.77943       0   1   0           -1.09680 
     80     Cu6    Zr54      4.04488       0   0   0           -0.07322 
     81     Cu7     Cu8      3.58131       0   0  -1           -0.02975 
     82     Cu7    Zr13      2.82690       0   0   0           -0.97904 
     83     Cu7    Cu21      2.37459       0   1  -1           -0.67713 
     84     Cu7    Zr32      2.73245       0   0   0           -1.21229 
     85     Cu7    Zr50      2.98275       0   1   0           -0.67250 
     86     Cu7    Zr76      2.90417       1   0  -1           -0.79188 
     87     Cu7    Cu80      3.81836       1   0   0           -0.02938 
     88     Cu7    Zr81      3.06480       1   0   0           -0.49301 
     89     Cu7    Zr82      2.79503       1   0  -1           -1.03319 
     90     Cu8    Cu10      3.55137       0   0   0            0.00006 
     91     Cu8    Zr11      2.66988       0   0   0           -1.35016 
     92     Cu8    Zr13      3.47376       0   0   1           -0.32019 
     93     Cu8    Cu15      2.72138       0   0   1           -0.34629 
     94     Cu8    Zr26      2.90789       0   0   0           -0.68218 
     95     Cu8    Cu30      4.07167       0   0   1           -0.01497 
     96     Cu8    Zr32      2.71778       0   0   1           -1.26637 
     97     Cu8    Zr33      3.04532       0   0   0           -0.51997 
     98     Cu8    Al34      3.15726       0   0   0           -0.49562 
     99     Cu8    Zr38      2.80184       0   0   1           -1.07302 
    100     Cu8    Cu39      2.41647       0   0   0           -0.49190 
    101     Cu8    Zr82      3.30513       1   0   0           -0.36928 
    102     Zr9    Cu10      2.94774       0   0   0           -0.85107 
    103     Zr9    Zr11      3.33015       0   0   0           -1.04974 
    104     Zr9    Zr12      3.22975       0   0   0           -1.40688 
    105     Zr9    Zr52      3.74134       1   0   0           -0.54437 
    106     Zr9    Cu75      3.14256       1   0   0           -0.45226 
    107     Zr9    Zr76      3.25262       1   0   0           -1.34734 
    108     Zr9    Zr77      3.12497       1   0   0           -1.61065 
    109     Zr9    Cu78      2.70895       1   0   0           -1.28431 
    110     Zr9    Zr82      3.27994       1   0   0           -1.21114 
    111     Zr9    Zr83      2.82225       1   0   0           -3.02718 
    112     Zr9    Cu84      3.56379       1   0   0           -0.21167 
    113     Zr9    Zr85      3.30009       1   0   0           -1.21747 
    114    Cu10    Zr11      2.96711       0   0   0           -0.63922 
    115    Cu10    Zr12      3.01819       0   0   0           -0.71637 
    116    Cu10    Zr26      2.77274       0   0   0           -0.95553 
    117    Cu10    Cu28      3.67322       0   0   0           -0.01289 
    118    Cu10    Zr29      2.89561       0   0   0           -0.94219 
    119    Cu10    Al34      2.78086       0   0   0           -0.91958 
    120    Cu10    Cu35      2.73794       0   0   0           -0.22377 
    121    Cu10    Cu36      2.42090       0   0   0           -0.48234 
    122    Cu10    Zr40      3.84047       0   0   0           -0.07903 
    123    Cu10    Zr85      4.03988       1   0   0           -0.10288 
    124    Zr11    Zr12      3.32839       0   0   0           -0.85219 
    125    Zr11    Cu15      2.81349       0   0   1           -0.93466 
    126    Zr11    Zr16      3.28225       0   0   0           -1.05352 
    127    Zr11    Al34      3.52249       0   0   0           -0.80909 
    128    Zr11    Cu36      4.04497       0   0   0           -0.04563 
    129    Zr11    Cu39      2.84246       0   0   0           -0.88212 
    130    Zr11    Zr40      3.17305       0   0   0           -1.25876 
    131    Zr11    Zr82      2.99187       1   0   0           -2.20879 
    132    Zr11    Zr83      3.28673       1   0   0           -0.94416 
    133    Zr11    Zr87      3.13706       1   0   0           -1.45074 
    134    Zr11    Al89      2.79064       1   0   0           -2.10338 
    135    Zr12    Zr14      3.11291       0   0   0           -1.78291 
    136    Zr12    Cu17      2.86584       0   0   0           -0.64613 
    137    Zr12    Cu18      2.96755       0   0   0           -0.72565 
    138    Zr12    Cu36      2.71498       0   0   0           -1.18600 
    139    Zr12    Zr40      3.37658       0   0   0           -0.90046 
    140    Zr12    Zr42      3.88269       0   0   0           -0.43284 
    141    Zr12    Zr83      3.31579       1   0   0           -0.93348 
    142    Zr12    Cu84      3.17598       1   0   0           -0.45459 
    143    Zr12    Zr85      3.27047       1   0   0           -1.33810 
    144    Zr12    Al89      3.03500       1   0   0           -1.60201 
    145    Zr12    Zr90      3.10334       1   0   0           -1.51343 
    146    Zr12    Cu91      3.01492       1   0   0           -0.67721 
    147    Zr13    Zr14      3.08525       0   0   0           -1.84802 
    148    Zr13    Cu15      3.12823       0   0   0           -0.53390 
    149    Zr13    Zr29      3.52822       0   0   0           -0.82437 
    150    Zr13    Cu30      2.95772       0   0   0           -0.73196 
    151    Zr13    Zr32      3.36359       0   0   0           -1.07525 
    152    Zr13    Zr38      3.44380       0   0   0           -0.93733 
    153    Zr13    Cu80      3.03387       1   0   0           -0.59019 
    154    Zr13    Zr82      3.28134       1   0  -1           -1.28261 
    155    Zr13    Zr85      3.22899       1   0   0           -1.43393 
    156    Zr13    Cu86      2.70767       1   0   0           -1.21786 
    157    Zr14    Cu15      3.32953       0   0   0           -0.35609 
    158    Zr14    Cu18      2.91246       0   0   0           -0.78028 
    159    Zr14    Zr19      3.02348       0   0   0           -2.00789 
    160    Zr14    Cu20      3.39614       0   0   0           -0.30371 
    161    Zr14    Zr29      3.40550       0   0   0           -1.00890 
    162    Zr14    Cu30      3.85760       0   0   0           -0.12458 
    163    Zr14    Cu36      2.81065       0   0   0           -1.07775 
    164    Zr14    Zr37      3.31880       0   0   0           -1.05140 
    165    Zr14    Zr38      2.94896       0   0   0           -2.44401 
    166    Zr14    Zr42      3.35793       0   0   0           -0.99939 
    167    Zr14    Cu43      4.00447       0   0   0           -0.07163 
    168    Zr14    Zr85      3.27940       1   0   0           -1.29659 
    169    Zr14    Cu86      3.17412       1   0   0           -0.48571 
    170    Zr14    Cu91      3.14929       1   0   0           -0.54786 
    171    Cu15    Zr16      2.84724       0   0  -1           -0.86268 
    172    Cu15    Zr19      3.22090       0   0   0           -0.44448 
    173    Cu15    Cu20      2.63423       0   0   0           -0.36247 
    174    Cu15    Zr38      2.87867       0   0   0           -0.80398 
    175    Cu15    Cu39      3.12453       0   0  -1           -0.15850 
    176    Cu15    Zr82      2.92673       1   0  -1           -0.71852 
    177    Cu15    Cu86      2.35799       1   0   0           -0.71528 
    178    Cu15    Zr87      2.83496       1   0  -1           -0.81913 
    179    Cu15    Cu91      4.18815       1   0   0           -0.01467 
    180    Zr16    Zr19      3.09888       0   0   1           -1.88024 
    181    Zr16    Cu20      3.15243       0   0   1           -0.54475 
    182    Zr16    Cu21      2.86074       0   0   0           -0.93225 
    183    Zr16    Cu22      2.89295       0   0   0           -0.70071 
    184    Zr16    Cu24      3.07214       0   0   1           -0.60103 
    185    Zr16    Cu39      3.13318       0   0   0           -0.57601 
    186    Zr16    Zr40      3.87633       0   0   0           -0.36843 
    187    Zr16    Zr44      3.94805       0   0   1           -0.43853 
    188    Zr16    Cu45      2.84388       0   0   0           -0.94726 
    189    Zr16    Zr50      3.23829       0   0   1           -1.42071 
    190    Zr16    Zr87      3.10136       1   0   0           -1.58737 
    191    Zr16    Al89      3.14627       1   0   0           -1.35833 
    192    Zr16    Cu94      2.74430       1   0   0           -0.95332 
    193    Zr16   Zr100      3.54811       1   0   1           -0.80527 
    194    Cu17    Cu18      2.48019       0   0   0           -0.57318 
    195    Cu17    Cu22      2.63854       0   0   0           -0.17830 
    196    Cu17    Zr23      2.61781       0   0   0           -1.54191 
    197    Cu17    Cu25      3.75852       0   0   0           -0.02145 
    198    Cu17    Cu36      3.96908       0   0   0           -0.01329 
    199    Cu17    Zr40      2.81174       0   0   0           -0.87168 
    200    Cu17    Zr42      3.00489       0   0   0           -0.70082 
    201    Cu17    Al89      2.43249       1   0   0           -1.57869 
    202    Cu17    Zr90      2.83513       1   0   0           -0.73342 
    203    Cu17    Cu94      3.93509       1   0   0           -0.00112 
    204    Cu17    Zr96      3.06756       1   0   0           -0.41964 
    205    Cu17    Zr97      2.90654       1   0   0           -0.89976 
    206    Cu18    Zr19      2.91190       0   0   0           -0.81537 
    207    Cu18    Cu20      2.57375       0   0   0           -0.47418 
    208    Cu18    Zr23      4.07802       0   0   0           -0.05629 
    209    Cu18    Cu24      2.76245       0   0   0           -0.25594 
    210    Cu18    Cu25      3.09612       0   0   0           -0.10192 
    211    Cu18    Cu36      4.00851       0   0   0           -0.01209 
    212    Cu18    Zr42      2.82826       0   0   0           -0.85367 
    213    Cu18    Cu86      4.12075       1   0   0           -0.00459 
    214    Cu18    Zr90      3.02163       1   0   0           -0.70303 
    215    Cu18    Cu91      2.63204       1   0   0           -0.41707 
    216    Cu18    Cu92      2.86970       1   0   0           -0.22985 
    217    Cu18    Zr97      2.73094       1   0   0           -1.16642 
    218    Zr19    Cu20      2.99389       0   0   0           -0.66466 
    219    Zr19    Cu24      2.69907       0   0   0           -1.18519 
    220    Zr19    Cu25      2.83016       0   0   0           -0.87968 
    221    Zr19    Zr38      3.04365       0   0   0           -1.86997 
    222    Zr19    Cu39      3.95410       0   0  -1           -0.11533 
    223    Zr19    Zr42      2.88338       0   0   0           -2.72179 
    224    Zr19    Cu43      3.04895       0   0   0           -0.54731 
    225    Zr19    Zr44      3.11836       0   0   0           -1.70200 
    226    Zr19    Cu45      4.18895       0   0  -1           -0.05070 
    227    Zr19    Cu49      2.78862       0   0   0           -0.95028 
    228    Zr19    Zr50      3.20673       0   0   0           -1.44987 
    229    Cu20    Cu24      2.43693       0   0   0           -0.58200 
    230    Cu20    Cu86      2.49177       1   0   0           -0.49510 
    231    Cu20    Zr87      2.87679       1   0  -1           -0.89723 
    232    Cu20    Cu91      2.54260       1   0   0           -0.47568 
    233    Cu20    Cu92      2.52501       1   0   0           -0.46296 
    234    Cu20    Cu93      2.62701       1   0   0           -0.39266 
    235    Cu20    Zr97      4.15000       1   0   0           -0.04533 
    236    Cu20   Zr100      2.90068       1   0   0           -0.84325 
    237    Cu21    Cu22      3.30106       0   0   0           -0.09465 
    238    Cu21    Cu24      2.62569       0   0   1           -0.39577 
    239    Cu21    Cu25      4.19620       0   0   1           -0.00273 
    240    Cu21    Zr50      2.68788       0   0   1           -1.29651 
    241    Cu21    Zr76      2.85852       1  -1   0           -0.84034 
    242    Cu21    Zr81      2.89134       1  -1   1           -0.80515 
    243    Cu21    Cu94      2.55076       1   0   0           -0.56090 
    244    Cu21    Cu95      3.34021       1   0   0           -0.04149 
    245    Cu21    Cu99      3.92374       1   0   1           -0.01154 
    246    Cu21   Zr100      2.94306       1   0   1           -0.74353 
    247    Cu22    Zr23      2.86654       0   0   0           -0.90481 
    248    Cu22    Zr40      2.89514       0   0   0           -0.65979 
    249    Cu22    Cu45      2.95397       0   0   0           -0.23759 
    250    Cu22    Zr47      3.89203       0   0   0           -0.12997 
    251    Cu22    Zr76      2.83903       1  -1   0           -1.02609 
    252    Cu22    Al89      2.47111       1   0   0           -1.61767 
    253    Cu22    Cu94      2.38975       1   0   0           -0.40471 
    254    Cu22    Zr96      3.29740       1   0   0           -0.27863 
    255    Zr23    Cu25      2.94892       0   0   0           -0.80860 
    256    Zr23    Cu28      2.95171       0  -1   0           -0.70157 
    257    Zr23    Zr29      3.95111       0  -1   0           -0.42974 
    258    Zr23    Zr40      3.84820       0   0   0           -0.50636 
    259    Zr23    Zr42      3.38588       0   0   0           -1.01103 
    260    Zr23    Zr47      3.31501       0   0   0           -1.14259 
    261    Zr23    Zr48      3.27767       0   0   0           -1.27641 
    262    Zr23    Zr76      3.75961       1  -1   0           -0.56281 
    263    Zr23    Cu78      3.19750       1  -1   0           -0.50310 
    264    Zr23    Zr96      3.80758       1   0   0           -0.49985 
    265    Zr23    Zr97      3.14687       1   0   0           -1.59947 
    266    Cu24    Cu25      2.49406       0   0   0           -0.53516 
    267    Cu24    Zr50      3.10476       0   0   0           -0.53052 
    268    Cu24    Cu92      2.88252       1   0   0           -0.21520 
    269    Cu24    Cu94      4.16737       1   0  -1           -0.00581 
    270    Cu24    Zr97      2.80294       1   0   0           -1.04108 
    271    Cu24    Cu99      3.30554       1   0   0           -0.06042 
    272    Cu24   Zr100      2.75508       1   0   0           -1.08313 
    273    Cu25    Zr42      2.80353       0   0   0           -0.97995 
    274    Cu25    Zr48      2.87179       0   0   0           -0.91390 
    275    Cu25    Cu49      2.82362       0   0   0           -0.29084 
    276    Cu25    Zr50      3.00112       0   0   0           -0.66937 
    277    Cu25    Zr97      2.85644       1   0   0           -0.84073 
    278    Zr26    Cu27      2.74425       0   0   0           -1.13304 
    279    Zr26    Cu28      2.81336       0   0   0           -1.02236 
    280    Zr26    Zr32      2.99429       0   0   1           -2.20112 
    281    Zr26    Zr33      3.49073       0   0   0           -0.66614 
    282    Zr26    Al34      2.81841       0   0   0           -2.30513 
    283    Zr26    Cu35      2.86926       0   0   0           -0.76414 
    284    Zr26    Zr46      4.16853       0   1   0           -0.33871 
    285    Zr26    Zr51      3.38311       0   0   0           -1.02581 
    286    Zr26    Cu53      2.81635       0   0   0           -0.90894 
    287    Zr26    Zr57      3.34834       0   0   0           -1.01361 
    288    Cu27    Cu28      2.45362       0   0   0           -0.55447 
    289    Cu27    Zr32      4.02932       0   0   1           -0.08138 
    290    Cu27    Zr46      2.58526       0   1   0           -1.56344 
    291    Cu27    Zr47      3.01172       0   1   0           -0.63147 
    292    Cu27    Zr51      2.96185       0   0   0           -0.72391 
    293    Cu27    Zr52      3.16482       0   0   0           -0.48658 
    294    Cu27    Cu53      2.29357       0   0   0           -0.76413 
    295    Cu27    Zr57      4.01372       0   0   0           -0.08288 
    296    Cu27    Cu69      2.44207       0   1   0           -0.65547 
    297    Cu27    Zr70      2.97555       0   1   0           -0.69452 
    298    Cu28    Zr29      2.93440       0   0   0           -0.77934 
    299    Cu28    Cu35      3.26227       0   0   0           -0.09760 
    300    Cu28    Zr47      2.98162       0   1   0           -0.66099 
    301    Cu28    Zr48      2.71554       0   1   0           -1.28214 
    302    Cu28    Cu53      2.49486       0   0   0           -0.50472 
    303    Cu28    Zr54      3.58651       0   0   0           -0.24001 
    304    Cu28    Zr70      3.48026       0   1   0           -0.27007 
    305    Zr29    Cu30      2.83196       0   0   0           -0.96456 
    306    Zr29    Cu35      2.83403       0   0   0           -1.05968 
    307    Zr29    Cu36      3.31531       0   0   0           -0.39646 
    308    Zr29    Zr37      3.41988       0   0   0           -0.96219 
    309    Zr29    Zr48      3.42684       0   1   0           -0.97744 
    310    Zr29    Cu53      4.04416       0   0   0           -0.05662 
    311    Zr29    Zr54      3.40208       0   0   0           -1.04274 
    312    Zr29    Cu78      4.16715       1   0   0           -0.05163 
    313    Zr29    Zr85      3.37987       1   0   0           -1.11316 
    314    Cu30    Zr31      2.92602       0   0   0           -0.79348 
    315    Cu30    Zr32      2.84372       0   0   0           -0.93910 
    316    Cu30    Zr37      2.90529       0   0   0           -0.76140 
    317    Cu30    Zr38      3.00170       0   0   0           -0.67629 
    318    Cu30    Zr48      3.72622       0   1   0           -0.14249 
    319    Cu30    Zr54      2.78716       0   0   0           -1.06728 
    320    Cu30    Zr55      4.12514       0   0   0           -0.06666 
    321    Cu30    Cu61      2.34487       0   0   0           -0.72399 
    322    Zr31    Zr32      3.07569       0   0   0           -1.78871 
    323    Zr31    Zr46      3.00629       0   1  -1           -2.13368 
    324    Zr31    Zr48      3.16747       0   1   0           -1.55281 
    325    Zr31    Cu49      2.83853       0   1   0           -0.93112 
    326    Zr31    Zr50      3.46375       0   1   0           -0.90348 
    327    Zr31    Zr51      3.45255       0   0  -1           -0.88182 
    328    Zr31    Zr54      3.30847       0   0   0           -1.08608 
    329    Zr31    Zr55      2.82207       0   0   0           -2.95032 
    330    Zr31    Cu61      3.26749       0   0   0           -0.35993 
    331    Zr31    Cu71      4.18760       0   1   0           -0.04664 
    332    Zr31    Cu72      2.72771       0   1   0           -1.12116 
    333    Zr31    Zr73      3.57794       0   1   0           -0.75412 
    334    Zr31    Cu74      2.90807       0   1   0           -0.74226 
    335    Zr31    Cu99      4.12206       0   1   0           -0.07084 
    336    Zr32    Zr33      3.84306       0   0  -1           -0.46933 
    337    Zr32    Zr38      3.92393       0   0   0           -0.46579 
    338    Zr32    Zr46      3.31655       0   1  -1           -1.11155 
    339    Zr32    Zr50      3.23321       0   1   0           -1.38754 
    340    Zr32    Zr51      3.32953       0   0  -1           -1.10067 
    341    Zr32    Cu61      3.44989       0   0   0           -0.26878 
    342    Zr33    Al34      2.96140       0   0   0           -1.78850 
    343    Zr33    Zr38      3.08230       0   0   1           -1.92178 
    344    Zr33    Cu39      2.78119       0   0   0           -0.83578 
    345    Zr33    Zr44      3.57599       0   0   1           -0.76248 
    346    Zr33    Zr51      3.26797       0   0   0           -1.34364 
    347    Zr33    Cu56      2.81104       0   0   0           -1.01630 
    348    Zr33    Zr57      3.15930       0   0   0           -1.41096 
    349    Zr33    Zr60      3.25533       0   0   1           -1.30104 
    350    Zr33    Cu61      2.89484       0   0   1           -0.93178 
    351    Zr33    Zr62      3.40707       0   0   0           -0.85198 
    352    Zr33    Cu66      2.97006       0   0   1           -0.81248 
    353    Zr33    Cu67      3.15091       0   0   1           -0.53200 
    354    Al34    Cu35      2.55317       0   0   0           -1.40306 
    355    Al34    Cu36      2.80357       0   0   0           -0.88022 
    356    Al34    Cu39      2.55366       0   0   0           -1.41340 
    357    Al34    Zr40      2.87404       0   0   0           -2.07196 
    358    Al34    Zr41      2.92497       0   0   0           -1.91230 
    359    Al34    Cu53      4.10602       0   0   0           -0.05136 
    360    Al34    Cu56      4.13328       0   0   0           -0.03511 
    361    Al34    Zr57      3.05034       0   0   0           -1.60476 
    362    Al34    Cu58      4.09764       0   0   0           -0.04067 
    363    Al34    Zr62      3.08557       0   0   0           -1.43928 
    364    Al34    Cu63      3.87437       0   0   0           -0.10448 
    365    Cu35    Cu36      2.57049       0   0   0           -0.28926 
    366    Cu35    Zr37      2.78637       0   0   0           -1.12760 
    367    Cu35    Zr41      3.06132       0   0   0           -0.43272 
    368    Cu35    Cu53      2.42826       0   0   0           -0.61207 
    369    Cu35    Zr54      3.10958       0   0   0           -0.67023 
    370    Cu35    Zr57      2.99680       0   0   0           -0.51330 
    371    Cu35    Cu58      2.56080       0   0   0           -0.44715 
    372    Cu35    Cu63      4.06974       0   0   0           -0.00178 
    373    Cu36    Zr37      2.97785       0   0   0           -0.72266 
    374    Cu36    Zr40      2.72445       0   0   0           -0.88323 
    375    Cu36    Zr41      2.70520       0   0   0           -0.91814 
    376    Cu36    Zr42      2.86444       0   0   0           -0.84715 
    377    Cu36    Cu43      4.03194       0   0   0           -0.01739 
    378    Zr37    Zr38      2.98088       0   0   0           -2.11189 
    379    Zr37    Zr41      2.99898       0   0   0           -2.09067 
    380    Zr37    Zr42      3.95815       0   0   0           -0.38778 
    381    Zr37    Cu43      2.67262       0   0   0           -1.21934 
    382    Zr37    Zr54      3.11883       0   0   0           -1.66616 
    383    Zr37    Cu58      2.75243       0   0   0           -1.02401 
    384    Zr37    Zr59      3.80948       0   0   0           -0.51397 
    385    Zr37    Cu61      3.08214       0   0   0           -0.61682 
    386    Zr37    Zr65      3.35668       0   0   0           -1.13770 
    387    Zr37    Cu66      2.95199       0   0   0           -0.68915 
    388    Zr38    Cu39      2.93535       0   0  -1           -0.81801 
    389    Zr38    Cu43      3.21551       0   0   0           -0.40144 
    390    Zr38    Zr44      3.25565       0   0   0           -1.32559 
    391    Zr38    Cu61      3.14454       0   0   0           -0.53422 
    392    Zr38    Cu66      3.03371       0   0   0           -0.64340 
    393    Cu39    Zr40      3.07145       0   0   0           -0.44214 
    394    Cu39    Zr44      2.75578       0   0   1           -1.17239 
    395    Cu39    Cu45      2.67869       0   0   0           -0.35969 
    396    Cu39    Zr62      3.14691       0   0   0           -0.40579 
    397    Zr40    Zr41      3.29462       0   0   0           -1.05676 
    398    Zr40    Zr42      3.10755       0   0   0           -1.73327 
    399    Zr40    Cu45      2.88642       0   0   0           -0.82068 
    400    Zr40    Zr47      2.98395       0   0   0           -2.31764 
    401    Zr40    Zr62      3.58533       0   0   0           -0.58102 
    402    Zr40    Al89      3.14693       1   0   0           -1.39109 
    403    Zr41    Zr42      3.13077       0   0   0           -1.61497 
    404    Zr41    Cu43      3.15087       0   0   0           -0.53680 
    405    Zr41    Zr47      3.33086       0   0   0           -1.09743 
    406    Zr41    Zr57      3.86473       0   0   0           -0.38787 
    407    Zr41    Cu58      2.95125       0   0   0           -0.68545 
    408    Zr41    Zr62      3.31222       0   0   0           -1.04742 
    409    Zr41    Cu63      2.68098       0   0   0           -1.28158 