  COHP#  atomMU  atomNU     distance     translation      ICOHP (at) eF   for spin  1
      1     Cu1     Zr2      3.25661       0   0   0           -0.35666 
      2     Cu1     Cu3      2.10730       0   0   0           -1.14211 
      3     Cu1     Cu7      2.26941       0   0   1           -0.85190 
      4     Cu1     Cu8      2.26976       0   0   0           -0.87988 
      5     Cu1     Zr9      2.52338       0   0   0           -1.54250 
      6     Cu1    Cu10      2.25590       0   0   0           -0.86008 
      7     Cu1    Zr11      2.94946       0   0   0           -0.60866 
      8     Cu1    Zr13      3.38812       0   0   1           -0.25508 
      9     Cu1    Cu15      3.75850       0   0   1           -0.01539 
     10     Cu1    Zr26      2.74279       0   0   0           -1.02012 
     11     Cu1    Cu28      3.88679       0   0   0           -0.00897 
     12     Cu1    Zr29      3.98084       0   0   0           -0.10637 
     13     Cu1    Zr32      2.92933       0   0   1           -0.66095 
     14     Cu1    Al34      4.03477       0   0   0           -0.00986 
     15     Cu1    Zr76      2.95069       1   0   0           -0.69716 
     16     Cu1    Cu78      3.85512       1   0   0           -0.01174 
     17     Cu1    Zr82      2.34197       1   0   0           -2.38060 
     18     Zr2     Cu3      2.58518       0   0   0           -1.37182 
     19     Zr2     Cu7      2.93717       0   0   1           -0.72243 
     20     Zr2    Zr16      4.11308       0   1   0           -0.26333 
     21     Zr2    Cu21      3.36450       0   1   0           -0.26658 
     22     Zr2    Cu22      2.61573       0   1   0           -1.49556 
     23     Zr2    Zr23      2.72584       0   1   0           -3.71693 
     24     Zr2    Zr26      3.23821       0   0   0           -1.20657 
     25     Zr2    Cu27      3.01682       0   0   0           -0.55451 
     26     Zr2    Cu28      2.55860       0   0   0           -1.45481 
     27     Zr2    Zr32      2.98026       0   0   1           -1.98774 
     28     Zr2    Cu45      2.77102       0   1   0           -0.85388 
     29     Zr2    Zr46      2.89946       0   1   0           -2.30685 
     30     Zr2    Zr47      3.01764       0   1   0           -1.84307 
     31     Zr2    Zr50      2.72689       0   1   1           -3.57971 
     32     Zr2    Zr76      3.08907       1   0   0           -1.71164 
     33     Cu3     Cu4      2.73181       0   0   0           -0.30337 
     34     Cu3     Cu6      4.10533       0   0   0           -0.00236 
     35     Cu3     Cu7      3.47115       0   0   1           -0.02261 
     36     Cu3     Cu8      4.01256       0   0   0           -0.02274 
     37     Cu3     Zr9      2.85880       0   0   0           -0.80820 
     38     Cu3    Cu10      2.42161       0   0   0           -0.59186 
     39     Cu3    Cu22      3.93295       0   1   0           -0.01123 
     40     Cu3    Zr23      2.64225       0   1   0           -1.24600 
     41     Cu3    Zr26      2.91692       0   0   0           -0.78623 
     42     Cu3    Cu27      4.19243       0   0   0           -0.01611 
     43     Cu3    Cu28      2.45042       0   0   0           -0.51949 
     44     Cu3    Zr29      2.50213       0   0   0           -1.89558 
     45     Cu3    Zr32      3.97210       0   0   1           -0.05460 
     46     Cu3    Cu35      3.91300       0   0   0           -0.00814 
     47     Cu3    Zr48      4.03306       0   1   0           -0.06841 
     48     Cu3    Zr76      2.74319       1   0   0           -0.98028 
     49     Cu3    Cu78      2.71026       1   0   0           -0.33668 
     50     Cu3    Zr82      4.11252       1   0   0           -0.07730 
     51     Cu3    Zr85      3.61895       1   0   0           -0.16338 
     52     Cu4     Zr5      2.24876       0   0   0           -3.07163 
     53     Cu4     Cu6      2.37860       0   0   0           -0.69669 
     54     Cu4     Cu7      3.83533       0   0   0           -0.02824 
     55     Cu4     Zr9      3.99094       0   0   0           -0.08562 
     56     Cu4    Zr13      3.12196       0   0   0           -0.48017 
     57     Cu4    Cu21      4.16819       0   1  -1           -0.04121 
     58     Cu4    Zr23      2.41247       0   1   0           -2.18652 
     59     Cu4    Cu24      3.72666       0   1   0           -0.01706 
     60     Cu4    Cu25      2.58418       0   1   0           -0.34588 
     61     Cu4    Cu28      3.73566       0   0   0           -0.01525 
     62     Cu4    Zr29      2.75347       0   0   0           -1.12798 
     63     Cu4    Cu30      4.10795       0   0   0           -0.01978 
     64     Cu4    Zr48      3.64308       0   1   0           -0.13778 
     65     Cu4    Zr50      3.99010       0   1   0           -0.06654 
     66     Cu4    Zr76      4.04711       1   0   0           -0.06244 
     67     Cu4    Cu78      2.22150       1   0   0           -0.98087 
     68     Cu4    Zr79      3.38095       1   0   0           -0.23906 
     69     Cu4    Cu80      3.75452       1   0   0           -0.03356 
     70     Cu4    Zr85      2.87589       1   0   0           -0.76380 
     71     Cu4    Zr97      2.73495       1   1   0           -0.89146 
     72     Zr5     Cu6      2.98639       0   0   0           -0.63777 
     73     Zr5     Cu7      2.34662       0   0   0           -2.30972 
     74     Zr5    Zr13      3.01557       0   0   0           -1.86863 
     75     Zr5    Cu21      2.23961       0   1  -1           -3.03444 
     76     Zr5    Zr23      4.19919       0   1   0           -0.31175 
     77     Zr5    Cu24      2.77186       0   1   0           -0.89451 
     78     Zr5    Cu25      3.07244       0   1   0           -0.49458 
     79     Zr5    Zr50      3.35237       0   1   0           -1.02902 
     80     Zr5    Zr55      4.09127       1   0   0           -0.22962 
     81     Zr5    Zr76      3.78672       1   0  -1           -0.58763 
     82     Zr5    Cu78      3.57376       1   0   0           -0.20364 
     83     Zr5    Zr79      3.03073       1   0   0           -1.81487 
     84     Zr5    Cu80      2.70239       1   0   0           -1.02609 
     85     Zr5    Zr81      2.58380       1   0   0           -4.66962 
     86     Zr5    Zr82      3.90430       1   0  -1           -0.37284 
     87     Zr5    Zr85      3.58514       1   0   0           -0.65724 
     88     Zr5    Zr97      2.83103       1   1   0           -2.82077 
     89     Zr5    Cu99      2.94867       1   1   0           -0.57762 
     90     Zr5   Zr100      3.80334       1   1   0           -0.45466 
     91     Cu6     Cu7      2.93630       0   0   0           -0.23799 
     92     Cu6    Zr13      2.75030       0   0   0           -0.89213 
     93     Cu6    Cu21      3.89442       0   1  -1           -0.00635 
     94     Cu6    Zr23      3.59115       0   1   0           -0.25081 
     95     Cu6    Cu24      4.09046       0   1   0           -0.00857 
     96     Cu6    Cu25      2.51827       0   1   0           -0.45224 
     97     Cu6    Cu28      3.67914       0   0   0           -0.02496 
     98     Cu6    Zr29      2.64638       0   0   0           -1.26126 
     99     Cu6    Cu30      2.36770       0   0   0           -0.58249 
    100     Cu6    Zr31      2.91290       0   0   0           -0.58336 
    101     Cu6    Zr32      2.63370       0   0   0           -1.19183 
    102     Cu6    Zr48      2.48895       0   1   0           -1.84780 
    103     Cu6    Cu49      3.40432       0   1   0           -0.02620 
    104     Cu6    Zr50      2.49963       0   1   0           -1.74725 
    105     Cu6    Zr54      3.85254       0   0   0           -0.08908 
    106     Cu7     Cu8      3.53845       0   0  -1           -0.02239 
    107     Cu7     Zr9      4.01676       0   0  -1           -0.06578 
    108     Cu7    Zr13      2.51127       0   0   0           -1.75925 
    109     Cu7    Cu21      2.36690       0   1  -1           -0.60867 
    110     Cu7    Cu22      4.06346       0   1  -1           -0.00960 
    111     Cu7    Cu24      4.11783       0   1   0           -0.02096 
    112     Cu7    Cu25      4.17898       0   1   0           -0.00630 
    113     Cu7    Zr26      4.06422       0   0  -1           -0.08806 
    114     Cu7    Cu30      4.07927       0   0   0           -0.01386 
    115     Cu7    Zr32      2.68066       0   0   0           -1.21569 
    116     Cu7    Zr50      2.91588       0   1   0           -0.66411 
    117     Cu7    Zr76      2.49482       1   0  -1           -1.76134 
    118     Cu7    Cu80      3.53296       1   0   0           -0.06649 
    119     Cu7    Zr81      3.00440       1   0   0           -0.43903 
    120     Cu7    Zr82      2.75770       1   0  -1           -0.93119 
    121     Cu8    Cu10      2.86256       0   0   0           -0.10324 
    122     Cu8    Zr11      2.50484       0   0   0           -1.77108 
    123     Cu8    Zr13      2.99901       0   0   1           -0.71775 
    124     Cu8    Zr14      4.03318       0   0   1           -0.10429 
    125     Cu8    Cu15      2.56666       0   0   1           -0.43083 
    126     Cu8    Zr26      2.63928       0   0   0           -1.04071 
    127     Cu8    Cu30      3.47427       0   0   1           -0.08635 
    128     Cu8    Zr32      2.66395       0   0   1           -1.26598 
    129     Cu8    Zr33      2.98848       0   0   0           -0.43833 
    130     Cu8    Al34      2.77276       0   0   0           -0.97651 
    131     Cu8    Cu35      4.11337       0   0   0           -0.00464 
    132     Cu8    Zr38      2.40656       0   0   1           -2.15396 
    133     Cu8    Cu39      2.40410       0   0   0           -0.34891 
    134     Cu8    Cu61      3.95766       0   0   1           -0.00956 
    135     Cu8    Zr82      3.24268       1   0   0           -0.39737 
    136     Cu8    Cu86      4.11497       1   0   1           -0.00802 
    137     Zr9    Cu10      2.88568       0   0   0           -0.78814 
    138     Zr9    Zr11      3.15287       0   0   0           -1.28345 
    139     Zr9    Zr12      3.08981       0   0   0           -1.52434 
    140     Zr9    Zr29      4.11950       0   0   0           -0.23469 
    141     Zr9    Zr52      3.66328       1   0   0           -0.50689 
    142     Zr9    Cu75      2.83582       1   0   0           -0.76237 
    143     Zr9    Zr76      3.13976       1   0   0           -1.49184 
    144     Zr9    Zr77      2.94768       1   0   0           -2.00273 
    145     Zr9    Cu78      2.54326       1   0   0           -1.58658 
    146     Zr9    Zr81      4.13386       1   0   1           -0.21283 
    147     Zr9    Zr82      2.63012       1   0   0           -4.36948 
    148     Zr9    Zr83      2.77829       1   0   0           -2.87879 
    149     Zr9    Cu84      3.31245       1   0   0           -0.24622 
    150     Zr9    Zr85      2.64139       1   0   0           -4.52176 
    151    Cu10    Zr11      2.68172       0   0   0           -1.06640 
    152    Cu10    Zr12      2.91024       0   0   0           -0.73352 
    153    Cu10    Zr14      3.54489       0   0   0           -0.21352 
    154    Cu10    Zr26      2.59037       0   0   0           -1.26905 
    155    Cu10    Cu28      3.63956       0   0   0           -0.01411 
    156    Cu10    Zr29      2.46994       0   0   0           -2.03731 
    157    Cu10    Al34      2.67893       0   0   0           -1.11170 
    158    Cu10    Cu35      2.62644       0   0   0           -0.27454 
    159    Cu10    Cu36      2.26140       0   0   0           -0.63754 
    160    Cu10    Zr37      4.06297       0   0   0           -0.04396 
    161    Cu10    Cu39      3.81879       0   0   0           -0.00371 
    162    Cu10    Zr40      3.83110       0   0   0           -0.05921 
    163    Cu10    Zr82      3.95327       1   0   0           -0.10775 
    164    Cu10    Zr85      3.59744       1   0   0           -0.21355 
    165    Zr11    Zr12      2.69497       0   0   0           -3.39635 
    166    Zr11    Cu15      2.25187       0   0   1           -3.06089 
    167    Zr11    Zr16      3.10585       0   0   0           -1.23789 
    168    Zr11    Cu17      4.02355       0   0   0           -0.04941 
    169    Zr11    Cu20      4.10563       0   0   1           -0.08084 
    170    Zr11    Al34      3.40309       0   0   0           -0.94958 
    171    Zr11    Cu36      3.43638       0   0   0           -0.16055 
    172    Zr11    Zr38      4.01667       0   0   1           -0.49347 
    173    Zr11    Cu39      2.72412       0   0   0           -0.96445 
    174    Zr11    Zr40      2.99476       0   0   0           -1.70245 
    175    Zr11    Zr82      2.82843       1   0   0           -2.72027 
    176    Zr11    Zr83      3.16645       1   0   0           -1.00251 
    177    Zr11    Cu86      3.81903       1   0   1           -0.09422 
    178    Zr11    Zr87      2.93084       1   0   0           -1.87358 
    179    Zr11    Al89      2.71189       1   0   0           -2.20415 
    180    Zr12    Zr14      2.62894       0   0   0           -4.85633 
    181    Zr12    Cu17      2.86347       0   0   0           -0.48320 
    182    Zr12    Cu18      2.67218       0   0   0           -1.11241 
    183    Zr12    Cu20      3.94249       0   0   0           -0.07298 
    184    Zr12    Cu36      2.65842       0   0   0           -1.21145 
    185    Zr12    Zr40      3.20403       0   0   0           -1.07621 
    186    Zr12    Zr42      3.74877       0   0   0           -0.40415 
    187    Zr12    Zr83      3.00475       1   0   0           -1.58365 
    188    Zr12    Cu84      3.10199       1   0   0           -0.46771 
    189    Zr12    Zr85      3.09177       1   0   0           -1.65320 
    190    Zr12    Cu86      3.98346       1   0   0           -0.07003 
    191    Zr12    Al89      2.71619       1   0   0           -2.46711 
    192    Zr12    Zr90      3.06004       1   0   0           -1.34127 
    193    Zr12    Cu91      2.59478       1   0   0           -1.47262 
    194    Zr13    Zr14      2.90236       0   0   0           -2.47517 
    195    Zr13    Cu15      2.99664       0   0   0           -0.51699 
    196    Zr13    Zr29      2.96796       0   0   0           -2.18256 
    197    Zr13    Cu30      2.87829       0   0   0           -0.70658 
    198    Zr13    Zr32      3.09856       0   0   0           -1.68288 
    199    Zr13    Zr38      3.39797       0   0   0           -0.86865 
    200    Zr13    Cu80      2.97507       1   0   0           -0.52485 
    201    Zr13    Zr81      4.15852       1   0   0           -0.21821 
    202    Zr13    Zr82      2.81655       1   0  -1           -2.94466 
    203    Zr13    Zr85      2.76640       1   0   0           -3.46350 
    204    Zr13    Cu86      2.67770       1   0   0           -1.02827 
    205    Zr14    Cu15      2.70301       0   0   0           -1.18473 
    206    Zr14    Cu17      4.19443       0   0   0           -0.03799 
    207    Zr14    Cu18      2.87701       0   0   0           -0.71684 
    208    Zr14    Zr19      2.88628       0   0   0           -2.40071 
    209    Zr14    Cu20      3.19773       0   0   0           -0.40119 
    210    Zr14    Zr29      3.29319       0   0   0           -1.01788 
    211    Zr14    Cu30      3.77044       0   0   0           -0.12773 
    212    Zr14    Cu35      4.12638       0   0   0           -0.04836 
    213    Zr14    Cu36      2.36570       0   0   0           -2.47972 
    214    Zr14    Zr37      3.24775       0   0   0           -1.01740 
    215    Zr14    Zr38      2.59663       0   0   0           -4.73390 
    216    Zr14    Zr42      3.25592       0   0   0           -0.97716 
    217    Zr14    Cu43      3.94148       0   0   0           -0.07210 
    218    Zr14    Zr85      3.19707       1   0   0           -1.27493 
    219    Zr14    Cu86      2.92899       1   0   0           -0.69143 
    220    Zr14    Cu91      3.08580       1   0   0           -0.46411 
    221    Cu15    Zr16      2.77775       0   0  -1           -0.85496 
    222    Cu15    Cu18      3.84010       0   0   0           -0.00867 
    223    Cu15    Zr19      3.03454       0   0   0           -0.51695 
    224    Cu15    Cu20      2.46257       0   0   0           -0.53312 
    225    Cu15    Cu24      4.19347       0   0   0           -0.01051 
    226    Cu15    Zr38      2.76691       0   0   0           -0.85058 
    227    Cu15    Cu39      2.90689       0   0  -1           -0.22319 
    228    Cu15    Zr82      2.81427       1   0  -1           -0.80605 
    229    Cu15    Cu86      2.18680       1   0   0           -1.02031 
    230    Cu15    Zr87      2.70905       1   0  -1           -0.96152 
    231    Cu15    Al89      3.93510       1   0  -1           -0.08914 
    232    Cu15    Cu91      3.60440       1   0   0           -0.01226 
    233    Zr16    Cu17      3.91768       0   0   0           -0.04698 
    234    Zr16    Cu18      3.97243       0   0   1           -0.11245 
    235    Zr16    Zr19      2.59702       0   0   1           -5.08506 
    236    Zr16    Cu20      2.74916       0   0   1           -0.92521 
    237    Zr16    Cu21      2.84188       0   0   0           -0.91537 
    238    Zr16    Cu22      2.47956       0   0   0           -1.56469 
    239    Zr16    Cu24      2.61732       0   0   1           -1.43926 
    240    Zr16    Cu25      4.05579       0   0   1           -0.07856 
    241    Zr16    Cu39      3.06889       0   0   0           -0.56268 
    242    Zr16    Zr40      3.27065       0   0   0           -0.95103 
    243    Zr16    Zr44      3.83383       0   0   1           -0.46068 
    244    Zr16    Cu45      2.72488       0   0   0           -1.11706 
    245    Zr16    Zr50      3.13043       0   0   1           -1.59179 
    246    Zr16    Zr87      3.06118       1   0   0           -1.38274 
    247    Zr16    Al89      2.65662       1   0   0           -2.79192 
    248    Zr16    Cu94      2.59484       1   0   0           -1.07871 
    249    Zr16   Zr100      3.41357       1   0   1           -0.93461 
    250    Cu17    Cu18      2.04647       0   0   0           -1.24484 
    251    Cu17    Zr19      4.01593       0   0   0           -0.09219 
    252    Cu17    Cu20      4.15107       0   0   0           -0.05801 
    253    Cu17    Cu22      2.22781       0   0   0           -0.55652 
    254    Cu17    Zr23      2.60554       0   0   0           -1.45098 
    255    Cu17    Cu24      3.74175       0   0   0           -0.01427 
    256    Cu17    Cu25      3.28020       0   0   0           -0.12967 
    257    Cu17    Cu36      3.93003       0   0   0           -0.01738 
    258    Cu17    Zr40      2.64637       0   0   0           -1.10558 
    259    Cu17    Zr42      2.80102       0   0   0           -0.95505 
    260    Cu17    Al89      2.08692       1   0   0           -2.87453 
    261    Cu17    Zr90      2.77086       1   0   0           -0.61255 
    262    Cu17    Cu91      3.99446       1   0   0           -0.01126 
    263    Cu17    Cu92      3.87187       1   0   0           -0.00896 
    264    Cu17    Cu94      3.30964       1   0   0           -0.01728 
    265    Cu17    Zr96      2.98298       1   0   0           -0.37331 
    266    Cu17    Zr97      2.63565       1   0   0           -1.37498 
    267    Cu18    Zr19      2.60125       0   0   0           -1.27351 
    268    Cu18    Cu20      2.15062       0   0   0           -1.13831 
    269    Cu18    Zr23      3.84943       0   0   0           -0.08170 
    270    Cu18    Cu24      2.42843       0   0   0           -0.49895 
    271    Cu18    Cu25      3.05145       0   0   0           -0.07277 
    272    Cu18    Cu36      3.80425       0   0   0           -0.02116 
    273    Cu18    Zr40      3.82156       0   0   0           -0.11794 
    274    Cu18    Zr42      2.74387       0   0   0           -0.84075 
    275    Cu18    Cu86      3.84252       1   0   0           -0.00883 
    276    Cu18    Al89      3.58026       1   0   0           -0.18896 
    277    Cu18    Zr90      2.77593       1   0   0           -0.97156 
    278    Cu18    Cu91      2.60322       1   0   0           -0.33500 
    279    Cu18    Cu92      2.75160       1   0   0           -0.26236 
    280    Cu18    Cu93      4.08495       1   0   0           -0.03243 
    281    Cu18    Zr96      4.18089       1   0   0           -0.03085 
    282    Cu18    Zr97      2.71601       1   0   0           -1.09669 
    283    Cu18   Zr100      4.02479       1   0   0           -0.07646 
    284    Zr19    Cu20      2.93522       0   0   0           -0.65896 
    285    Zr19    Cu21      4.15676       0   0  -1           -0.04483 
    286    Zr19    Cu24      2.66330       0   0   0           -1.10851 
    287    Zr19    Cu25      2.70380       0   0   0           -0.99642 
    288    Zr19    Cu36      4.01267       0   0   0           -0.10036 
    289    Zr19    Zr38      2.99852       0   0   0           -1.69109 
    290    Zr19    Cu39      3.35468       0   0  -1           -0.37393 
    291    Zr19    Zr42      2.34312       0   0   0           -8.64240 
    292    Zr19    Cu43      2.92415       0   0   0           -0.55997 
    293    Zr19    Zr44      2.87342       0   0   0           -2.42994 
    294    Zr19    Cu45      3.48185       0   0  -1           -0.20261 
    295    Zr19    Cu49      2.74835       0   0   0           -0.80068 
    296    Zr19    Zr50      3.07588       0   0   0           -1.66256 
    297    Cu20    Cu21      4.13514       0   0  -1           -0.01283 
    298    Cu20    Cu24      2.43156       0   0   0           -0.54179 
    299    Cu20    Cu86      2.49050       1   0   0           -0.42143 
    300    Cu20    Zr87      2.40536       1   0  -1           -2.22303 
    301    Cu20    Zr90      3.70438       1   0   0           -0.11633 
    302    Cu20    Cu91      2.23791       1   0   0           -0.92772 
    303    Cu20    Cu92      2.38022       1   0   0           -0.58637 
    304    Cu20    Cu93      2.57735       1   0   0           -0.33629 
    305    Cu20    Cu94      3.87206       1   0  -1           -0.03157 
    306    Cu20    Zr97      3.82718       1   0   0           -0.07703 
    307    Cu20   Zr100      2.77603       1   0   0           -0.86980 
    308    Cu21    Cu22      2.78605       0   0   0           -0.27626 
    309    Cu21    Cu24      2.26444       0   0   1           -0.81246 
    310    Cu21    Cu25      3.53407       0   0   1           -0.02152 
    311    Cu21    Cu45      4.05257       0   0   0           -0.00731 
    312    Cu21    Zr50      2.59355       0   0   1           -1.48226 
    313    Cu21    Zr76      2.42562       1  -1   0           -1.89292 
    314    Cu21    Zr81      2.86107       1  -1   1           -0.66386 
    315    Cu21    Al89      4.13521       1   0   0           -0.03292 
    316    Cu21    Cu94      2.30702       1   0   0           -0.88962 
    317    Cu21    Cu95      3.17040       1   0   0           -0.05278 
    318    Cu21    Zr96      4.04215       1   0   0           -0.06318 
    319    Cu21    Zr97      3.91744       1   0   1           -0.11080 
    320    Cu21    Cu99      3.54712       1   0   1           -0.05237 
    321    Cu21   Zr100      2.87203       1   0   1           -0.78191 
    322    Cu22    Zr23      2.44205       0   0   0           -2.06484 
    323    Cu22    Zr40      2.82026       0   0   0           -0.68738 
    324    Cu22    Zr42      4.03297       0   0   0           -0.06041 
    325    Cu22    Cu45      2.78760       0   0   0           -0.33121 
    326    Cu22    Zr47      3.73025       0   0   0           -0.13403 
    327    Cu22    Zr50      3.54574       0   0   1           -0.19930 
    328    Cu22    Zr76      2.81615       1  -1   0           -0.95385 
    329    Cu22    Cu78      4.18000       1  -1   0           -0.01303 
    330    Cu22    Al89      2.44979       1   0   0           -1.75840 
    331    Cu22    Cu94      2.24948       1   0   0           -0.55322 
    332    Cu22    Cu95      4.18586       1   0   0           -0.02145 
    333    Cu22    Zr96      3.12794       1   0   0           -0.35127 
    334    Cu22    Zr97      3.92751       1   0   0           -0.06226 
    335    Zr23    Cu24      4.10495       0   0   0           -0.06211 
    336    Zr23    Cu25      2.38831       0   0   0           -2.36492 
    337    Zr23    Cu28      2.89621       0  -1   0           -0.69515 
    338    Zr23    Zr29      3.85719       0  -1   0           -0.45883 
    339    Zr23    Zr40      3.72893       0   0   0           -0.51636 
    340    Zr23    Zr42      3.25798       0   0   0           -1.09492 
    341    Zr23    Cu45      4.05828       0   0   0           -0.08249 
    342    Zr23    Zr47      3.20080       0   0   0           -1.21352 
    343    Zr23    Zr48      3.03763       0   0   0           -1.82241 
    344    Zr23    Zr76      3.30632       1  -1   0           -1.12129 
    345    Zr23    Cu78      3.15835       1  -1   0           -0.50895 
    346    Zr23    Zr96      3.68861       1   0   0           -0.49339 
    347    Zr23    Zr97      2.90205       1   0   0           -2.37926 
    348    Cu24    Cu25      2.29777       0   0   0           -0.77316 
    349    Cu24    Zr42      3.87685       0   0   0           -0.07833 
    350    Cu24    Zr50      2.95044       0   0   0           -0.65337 
    351    Cu24    Zr87      4.11240       1   0  -1           -0.05860 
    352    Cu24    Cu92      2.75931       1   0   0           -0.21907 
    353    Cu24    Cu94      3.40275       1   0  -1           -0.03927 
    354    Cu24    Zr97      2.35082       1   0   0           -2.59019 
    355    Cu24    Cu99      3.24333       1   0   0           -0.04316 
    356    Cu24   Zr100      2.57542       1   0   0           -1.38915 
    357    Cu25    Cu28      4.15333       0  -1   0           -0.01364 
    358    Cu25    Zr42      2.66547       0   0   0           -1.11033 
    359    Cu25    Zr47      4.16974       0   0   0           -0.06840 
    360    Cu25    Zr48      2.76364       0   0   0           -0.97216 
    361    Cu25    Cu49      2.70914       0   0   0           -0.32604 
    362    Cu25    Zr50      2.44332       0   0   0           -2.07741 
    363    Cu25    Zr97      2.73988       1   0   0           -0.89702 
    364    Zr26    Cu27      2.71997       0   0   0           -0.99151 
    365    Zr26    Cu28      2.51791       0   0   0           -1.75625 
    366    Zr26    Zr29      3.49206       0   0   0           -0.83963 
    367    Zr26    Zr32      2.46569       0   0   1           -6.84929 
    368    Zr26    Zr33      3.24071       0   0   0           -0.91760 
    369    Zr26    Al34      2.80330       0   0   0           -2.17177 
    370    Zr26    Cu35      2.44402       0   0   0           -1.79094 
    371    Zr26    Cu36      4.03251       0   0   0           -0.02313 
    372    Zr26    Cu39      4.15566       0   0   0           -0.03189 
    373    Zr26    Zr46      4.00226       0   1   0           -0.35005 
    374    Zr26    Zr51      3.13348       0   0   0           -1.46748 
    375    Zr26    Cu53      2.55133       0   0   0           -1.42872 
    376    Zr26    Zr57      3.27833       0   0   0           -1.05505 
    377    Zr26    Cu61      4.19607       0   0   1           -0.04230 
    378    Cu27    Cu28      2.19070       0   0   0           -0.91066 
    379    Cu27    Zr31      4.01469       0   0   1           -0.15812 
    380    Cu27    Zr32      3.53206       0   0   1           -0.16834 
    381    Cu27    Cu35      4.02567       0   0   0           -0.02375 
    382    Cu27    Cu45      4.11821       0   1   0           -0.01932 
    383    Cu27    Zr46      2.20965       0   1   0           -3.38823 
    384    Cu27    Zr47      2.90987       0   1   0           -0.70351 
    385    Cu27    Zr48      3.69091       0   1   0           -0.14770 
    386    Cu27    Zr51      2.62116       0   0   0           -1.28582 
    387    Cu27    Zr52      3.10430       0   0   0           -0.41551 
    388    Cu27    Cu53      2.09679       0   0   0           -1.22511 
    389    Cu27    Zr54      3.90514       0   0   0           -0.10024 
    390    Cu27    Zr57      4.00118       0   0   0           -0.08016 
    391    Cu27    Cu64      4.13487       0   1   0           -0.01166 
    392    Cu27    Cu68      3.96768       0   1   0           -0.01399 
    393    Cu27    Cu69      2.42049       0   1   0           -0.58002 
    394    Cu27    Zr70      2.57760       0   1   0           -1.38733 
    395    Cu27    Cu74      3.79022       0   1   1           -0.02296 
    396    Cu27    Cu95      4.06456       0   1   0           -0.00067 
    397    Cu28    Zr29      2.68269       0   0   0           -1.22077 
    398    Cu28    Cu30      4.04275       0   0   0           -0.01343 
    399    Cu28    Zr32      4.08735       0   0   1           -0.08579 
    400    Cu28    Cu35      3.24991       0   0   0           -0.06819 
    401    Cu28    Zr46      3.81963       0   1   0           -0.12257 
    402    Cu28    Zr47      2.96341       0   1   0           -0.57814 
    403    Cu28    Zr48      2.29499       0   1   0           -2.93490 
    404    Cu28    Cu53      2.45559       0   0   0           -0.48795 
    405    Cu28    Zr54      3.20850       0   0   0           -0.43173 
    406    Cu28    Cu69      4.14883       0   1   0           -0.02031 
    407    Cu28    Zr70      3.39801       0   1   0           -0.27893 
    408    Zr29    Cu30      2.38510       0   0   0           -2.36004 
    409    Zr29    Cu35      2.65198       0   0   0           -1.28730 