LAMMPS (16 Feb 2016)
# General setup
units metal
boundary p p p
atom_style atomic

# Initial random distribution of 100 atoms
region box block -6.98 6.98 -6.98 6.98 -6.98 6.98
create_box 3 box
Created orthogonal box = (-6.98 -6.98 -6.98) to (6.98 6.98 6.98)
  4 by 4 by 6 MPI processor grid
create_atoms 1 random 49 57382 NULL units box # Zr
Created 49 atoms
create_atoms 2 random 49 37971 NULL units box # Cu
Created 49 atoms
create_atoms 3 random 2 84623 NULL units box # Al
Created 2 atoms

# The EAM potential
pair_style eam/alloy
# For all pairs of atom types (* *), reads the EAM potential file
# ZrCuAl.eam.alloy. See more at
# http://lammps.sandia.gov/doc/pair_eam.html
# Note: the masses and the cutoffs are already specified in the EAM
#       potential file.
# Note: the EAM file above is in the DYNAMO multi-element setfl format.
# Note: the elements in the EAM file are mapped to LAMMPS atom types
#       specified with the create_atoms command above by specifying N
#       additional arguments after the filename.
pair_coeff * * ZrCuAl-2011.lammps.eam Zr Cu Al

# Summary of thermodynamic info
thermo 50
thermo_style custom step etotal temp press pe vol density lx ly lz enthalpy

# CG minimization at constant volume
# just to avoid overlapping of atoms
min_style cg # Conjugate gradient
minimize 0.0 1.0e-8 10000 10000
WARNING: Resetting reneighboring criteria during minimization (../min.cpp:168)
Neighbor list info ...
  1 neighbor list requests
  update every 1 steps, delay 0 steps, check yes
  max neighbors/atom: 2000, page size: 100000
  master list distance cutoff = 8.5
  ghost atom cutoff = 8.5
  binsize = 4.25 -> bins = 4 4 4
Memory usage per processor = 3.28839 Mbytes
Step TotEng Temp Press PotEng Volume Density Lx Ly Lz Enthalpy 
       0    68089.033            0     52829167    68089.033    2720.5471    4.6618128        13.96        13.96        13.96    157794.65 
      50   -376.89358            0   -14949.471   -376.89358    2720.5471    4.6618128        13.96        13.96        13.96   -402.27826 
     100    -408.0295            0   -48931.453    -408.0295    2720.5471    4.6618128        13.96        13.96        13.96   -491.11668 
     150   -419.11912            0    -55846.16   -419.11912    2720.5471    4.6618128        13.96        13.96        13.96   -513.94769 
     200   -428.21249            0   -60429.966   -428.21249    2720.5471    4.6618128        13.96        13.96        13.96   -530.82451 
     250   -435.39588            0    -57649.21   -435.39588    2720.5471    4.6618128        13.96        13.96        13.96   -533.28609 
     300   -438.88175            0   -53300.956   -438.88175    2720.5471    4.6618128        13.96        13.96        13.96   -529.38848 
     350   -441.21724            0   -53096.929   -441.21724    2720.5471    4.6618128        13.96        13.96        13.96   -531.37753 
     400   -448.64386            0   -45752.002   -448.64386    2720.5471    4.6618128        13.96        13.96        13.96   -526.33223 
     450   -453.04712            0   -40329.793   -453.04712    2720.5471    4.6618128        13.96        13.96        13.96    -521.5284 
     500   -456.98371            0   -33079.572   -456.98371    2720.5471    4.6618128        13.96        13.96        13.96   -513.15389 
     550   -459.20501            0   -38264.906   -459.20501    2720.5471    4.6618128        13.96        13.96        13.96   -524.18005 
     600   -461.20169            0   -38023.988   -461.20169    2720.5471    4.6618128        13.96        13.96        13.96   -525.76764 
     650   -461.23479            0   -38192.513   -461.23479    2720.5471    4.6618128        13.96        13.96        13.96   -526.08691 
     700    -461.5378            0   -37465.086    -461.5378    2720.5471    4.6618128        13.96        13.96        13.96   -525.15472 
     750   -461.53803            0   -37544.474   -461.53803    2720.5471    4.6618128        13.96        13.96        13.96   -525.28975 
     800   -461.53803            0   -37542.569   -461.53803    2720.5471    4.6618128        13.96        13.96        13.96   -525.28652 
     850   -461.53803            0   -37542.561   -461.53803    2720.5471    4.6618128        13.96        13.96        13.96   -525.28651 
     866   -461.53803            0   -37542.561   -461.53803    2720.5471    4.6618128        13.96        13.96        13.96   -525.28651 
Loop time of 0.444048 on 96 procs for 866 steps with 100 atoms

99.8% CPU use with 96 MPI tasks x no OpenMP threads

Minimization stats:
  Stopping criterion = force tolerance
  Energy initial, next-to-last, final = 
         68089.0325775     -461.538033213     -461.538033213
  Force two-norm initial, final = 83460.4 9.3393e-09
  Force max component initial, final = 31961.3 1.67384e-09
  Final line search alpha, max atom move = 1 1.67384e-09
  Iterations, force evaluations = 866 1750

MPI task timing breakdown:
Section |  min time  |  avg time  |  max time  |%varavg| %total
---------------------------------------------------------------
Pair    | 0.1386     | 0.14237    | 0.14883    |   0.6 | 32.06
Neigh   | 0.00010813 | 0.00022111 | 0.00034427 |   0.5 |  0.05
Comm    | 0.11421    | 0.14637    | 0.16143    |   2.7 | 32.96
Output  | 0.0015212  | 0.0015638  | 0.0015979  |   0.0 |  0.35
Modify  | 0          | 0          | 0          |   0.0 |  0.00
Other   |            | 0.1535     |            |       | 34.57

Nlocal:    1.04167 ave 3 max 0 min
Histogram: 31 0 0 35 0 0 25 0 0 5
Nghost:    295.917 ave 355 max 216 min
Histogram: 2 4 8 8 11 15 17 14 11 6
Neighs:    50.125 ave 204 max 0 min
Histogram: 31 14 17 12 8 8 2 0 2 2

Total # of neighbors = 4812
Ave neighs/atom = 48.12
Neighbor list builds = 24
Dangerous builds = 0

# Now trying to reach a liquid in thermal
# equilibrium at 2000 K.
# See more on 03/11/2016-(10).
fix th all npt temp 2000 2000 0.2 iso 0 0 2
# A time step of 2 fs.
timestep 0.002
thermo 5000
run 1000000
Neighbor list info ...
  1 neighbor list requests
  update every 1 steps, delay 10 steps, check yes
  max neighbors/atom: 2000, page size: 100000
  master list distance cutoff = 8.5
  ghost atom cutoff = 8.5
  binsize = 4.25 -> bins = 4 4 4
Memory usage per processor = 2.16339 Mbytes
Step TotEng Temp Press PotEng Volume Density Lx Ly Lz Enthalpy 
     866   -461.53803            0   -37542.561   -461.53803    2720.5471    4.6618128        13.96        13.96        13.96   -525.28651 
    5000   -429.27368    2079.7277   -8964.9482   -455.88745    1949.5463    6.5054529    12.492361    12.492361    12.492361   -440.18233 
   10000   -435.22711     1715.932    6777.0793   -457.18547    1909.8406    6.6407014    12.406969    12.406969    12.406969   -427.14864 
   15000   -432.89487    2216.4963   -3794.6143   -461.25883    1936.4657    6.5493965    12.464359    12.464359    12.464359   -437.48122 
   20000   -434.75004    1958.5888   -11986.571   -459.81362    1947.0717    6.5137209    12.487073    12.487073    12.487073   -449.31692 
   25000   -433.68367    2017.6392    10034.843    -459.5029    1889.3832    6.7126043    12.362511    12.362511    12.362511   -421.84997 
   30000   -430.29332    2081.3452     2748.882   -456.92778    1936.6065    6.5489204    12.464661    12.464661    12.464661   -426.97065 
   35000   -437.06771    1728.9968   -11648.337   -459.19326    1933.0496    6.5609706    12.457025    12.457025    12.457025    -451.1216 
   40000   -427.08683    2022.7073   -33617.221   -452.97092    2023.4358    6.2678942    12.648232    12.648232    12.648232   -469.54301 
   45000   -434.45939    1787.3412     19659.58   -457.33156    1892.6473    6.7010275    12.369626    12.369626    12.369626   -411.23557 
   50000   -437.82666    1870.2901      11065.8    -461.7603    1888.0523    6.7173358    12.359607    12.359607    12.359607   -424.78639 
   55000   -431.47364    1942.6831    6559.5048   -456.33368    1935.7967    6.5516598    12.462923    12.462923    12.462923   -423.54825 
   60000   -433.91047    1834.3566   -3721.3649   -457.38429    1942.5627    6.5288402    12.477426    12.477426    12.477426   -438.42245 
   65000   -427.61008     1969.205    14795.342   -452.80951    1912.1218    6.6327791    12.411907    12.411907    12.411907   -409.95254 
   70000   -434.48662    2068.2389   -6395.6723   -460.95337    1926.8442    6.5821001    12.443681    12.443681    12.443681   -442.17832 
   75000   -431.89616    2109.6821   -2683.7537   -458.89324    1942.7756    6.5281248    12.477882    12.477882    12.477882   -435.15044 
   80000    -433.5977    1890.0846   -23263.076   -457.78465    1973.2212    6.4273997    12.542726    12.542726    12.542726   -462.24823 
   85000   -428.78374    2148.5333    20044.668   -456.27799    1896.9649    6.6857756    12.379025    12.379025    12.379025     -405.051 
   90000   -435.25383    1916.4906    8009.4823   -459.77869    1896.2548    6.6882791     12.37748     12.37748     12.37748   -425.77421 
   95000   -433.82285    2095.5868   -15728.834   -460.63956    1944.2427    6.5231987    12.481022    12.481022    12.481022   -452.90981 
  100000   -427.27965    1994.9235   -22026.526    -452.8082    1992.4604    6.3653367    12.583358    12.583358    12.583358   -454.67175 
  105000   -429.75914    2334.5326    1989.2561   -459.63358    1916.5268    6.6175341    12.421431    12.421431    12.421431   -427.37958 
  110000   -432.45542     1700.904    19988.666   -454.22147    1895.7342    6.6901158    12.376347    12.376347    12.376347   -408.80435 
  115000   -430.07559     2257.505    12172.791   -458.96432    1896.0347    6.6890556    12.377001    12.377001    12.377001   -415.67016 
  120000   -433.69843    2009.8929    13540.388   -459.41853    1899.8143    6.6757481     12.38522     12.38522     12.38522   -417.64263 
  125000   -434.04777    2083.6063   -5223.0623   -460.71116    1927.2821    6.5806048    12.444623    12.444623    12.444623   -440.33066 
  130000   -432.37876     1759.672    7095.0469   -454.89685    1909.4427    6.6420856    12.406107    12.406107    12.406107   -423.92303 
  135000   -428.14671    2169.0386    16170.315   -455.90337    1908.7103     6.644634    12.404521    12.404521    12.404521   -408.88264 
  140000   -432.38855    1999.8032   -12456.308   -457.97954    1964.0244     6.457497    12.523209    12.523209    12.523209   -447.65809 
  145000   -433.39698    2008.8203   -14446.031   -459.10336    1972.5422    6.4296123    12.541287    12.541287    12.541287   -451.18242 
  150000   -432.58987    2242.3891    11791.411   -461.28517    1891.5706    6.7048418     12.36728     12.36728     12.36728   -418.66862 
  155000   -438.13646    1814.2827    12531.925   -461.35339    1885.7057    6.7256952    12.354485    12.354485    12.354485   -423.38682 
  160000   -435.63483    1744.0325   -13694.556   -457.95278    1965.3373     6.453183    12.525999    12.525999    12.525999   -452.43349 
  165000     -423.926    2286.7242    13993.012   -453.18865    1927.8264    6.5787466    12.445795    12.445795    12.445795   -407.08885 
  170000   -433.21958    2003.6486    1818.7827   -458.85978    1920.9957    6.6021393    12.431078    12.431078    12.431078   -431.03887 
  175000   -434.33695    2117.6969   -13562.843    -461.4366    1942.1421    6.5302542    12.476526    12.476526    12.476526   -450.77769 
  180000   -440.46515    1506.6636   -9615.4151   -459.74556    1924.4014    6.5904552     12.43842     12.43842     12.43842   -452.01439 
  185000   -431.70175    2144.0422    -5305.962   -459.13853     1941.323    6.5330093    12.474772    12.474772    12.474772   -438.13087 
  190000   -436.25279    1721.6812   -16786.141   -458.28472    1949.7905    6.5046381    12.492882    12.492882    12.492882   -456.68092 
  195000    -431.7199     1873.144   -6411.4829   -455.69007    1959.3826    6.4727949    12.513335    12.513335    12.513335   -439.56083 
  200000    -425.0295    2294.7872   -1311.5168   -454.39532    1977.2713    6.4142343    12.551301    12.551301    12.551301   -426.64806 
  205000   -428.95108    2048.0763    5681.2175   -455.15981    1940.0963    6.5371401    12.472143    12.472143    12.472143   -422.07162 
  210000   -432.19627    2154.5083    27649.585   -459.76699    1865.5896    6.7982162    12.310396    12.310396    12.310396   -400.00083 
  215000   -431.10213    2169.7579    202.95292   -458.86799    1934.2529    6.5568888    12.459609    12.459609    12.459609   -430.85711 
  220000   -433.07005    1839.5176    8002.6674   -456.60991    1921.2637    6.6012186    12.431656    12.431656    12.431656   -423.47359 
  225000   -431.03181    1933.4501   -6491.4558    -455.7737    1944.0515    6.5238402    12.480613    12.480613    12.480613   -438.90843 
  230000   -430.46924    1814.4191    -16299.13   -453.68792    1961.9006    6.4644871    12.518693    12.518693    12.518693   -450.42789 
  235000   -433.79882    2088.7076   -5984.1898    -460.5275    1939.4508    6.5393159     12.47076     12.47076     12.47076   -441.04274 
  240000   -429.86234    2323.3366   -14589.859   -459.59351    1963.2273    6.4601189    12.521514    12.521514    12.521514   -447.74003 
  245000   -430.87707    2107.2264    11824.185   -457.84273    1896.3815    6.6878325    12.377756    12.377756    12.377756   -416.88163 
  250000   -423.59859    2471.9035    4276.3157   -455.23094    1937.2057    6.5468945    12.465946    12.465946    12.465946   -418.42806 
  255000    -424.9143    2263.2854    3956.6484   -453.87701    1945.5548    6.5187994    12.483829    12.483829    12.483829   -420.10967 
  260000   -427.86863    1960.7679    4541.6476    -452.9601     1934.056    6.5575564    12.459186    12.459186    12.459186   -422.38622 
  265000   -436.81724    1860.7467    9086.6023   -460.62876    1900.3792    6.6737637    12.386447    12.386447    12.386447    -426.0394 
  270000   -430.75043    2078.4237    15196.479   -457.34751    1906.1144    6.6536834    12.398895    12.398895    12.398895   -412.67113 
  275000    -435.7394    1729.1701    478.21786   -457.86716    1915.1151     6.622412    12.418381    12.418381    12.418381   -435.16777 
  280000   -430.56499    2232.2619   -5576.6759   -459.13069    1927.5826    6.5795788     12.44527     12.44527     12.44527    -437.2743 
  285000   -431.20202    1833.9803    2278.9303   -454.67102    1939.3921    6.5395139    12.470634    12.470634    12.470634   -428.44344 
  290000   -431.61883    1965.1581    5143.0468   -456.76647    1921.3719    6.6008469     12.43189     12.43189     12.43189   -425.45115 
  295000   -429.28461     2077.664   -2197.8574   -455.87196    1951.0865    6.5003175     12.49565     12.49565     12.49565    -431.9611 
  300000   -431.64103    1829.6547    17143.906   -455.05467    1902.8944    6.6649425    12.391909    12.391909    12.391909   -411.27933 
  305000   -429.86451    1965.6108     90.68786   -455.01794    1947.0724    6.5137186    12.487074    12.487074    12.487074    -429.7543 
  310000     -434.061    1971.6005   -12422.263   -459.29109    1944.3838    6.5227252    12.481324    12.481324    12.481324   -449.13652 
  315000   -432.46309    1926.9057   -7831.0404   -457.12123    1966.7659    6.4484957    12.529033    12.529033    12.529033   -442.07616 
  320000   -430.39139    2035.2746    18523.198    -456.4363    1910.8573    6.6371682    12.409171    12.409171    12.409171   -408.29945 
  325000   -434.71649    1904.6268    37507.113   -459.08953    1849.6832    6.8566778    12.275309    12.275309    12.275309   -391.41522 
  330000   -428.46043    2351.8891   -9632.5003   -458.55697    1944.6946    6.5216828    12.481989    12.481989    12.481989   -440.15219 
  335000   -434.49033    1932.0313    3691.0081   -459.21406    1914.8959    6.6231704    12.417907    12.417907    12.417907   -430.07889 
  340000    -431.8589     1989.759   -7478.6031   -457.32135    1959.0965    6.4737402    12.512726    12.512726    12.512726   -441.00352 
  345000   -429.38016    2055.4371    8196.5424   -455.68308     1920.819    6.6027469    12.430697    12.430697    12.430697   -419.55348 
  350000   -431.26227    1992.7668    7623.5716   -456.76322    1929.4616    6.5731712    12.449313    12.449313    12.449313   -422.08139 
  355000    -427.1125    2080.1964   -3580.2244   -453.73226    1958.9385    6.4742624     12.51239     12.51239     12.51239   -431.48995 
  360000   -434.62149    2002.3714   -7472.3482   -460.24535    1917.4595    6.6143151    12.423446    12.423446    12.423446   -443.56428 
  365000   -435.52467    2023.9167    69.321498   -461.42424      1917.02    6.6158317    12.422496    12.422496    12.422496   -435.44173 
  370000   -430.67269    2050.8514   -5521.9126   -456.91693     1957.804     6.478014    12.509974    12.509974    12.509974   -437.42027 
  375000   -433.05929    2085.0811    291.41312   -459.74156    1921.4272    6.6006568    12.432009    12.432009    12.432009   -432.70981 
  380000    -436.1112    1797.5161   -18046.328   -459.11358    1950.2472    6.5031149    12.493858    12.493858    12.493858   -458.07807 
  385000   -433.83902    1988.6424   -14212.347   -459.28719    1945.0008    6.5206561    12.482644    12.482644    12.482644   -451.09244 
  390000   -432.44448    1814.2385    8350.5405   -455.66085    1921.3789    6.6008226    12.431905    12.431905    12.431905   -422.43026 
  395000   -435.58837    1880.9935   -5768.0022   -459.65899    1930.6764    6.5690353    12.451925    12.451925    12.451925   -442.53901 
  400000   -431.22551    2106.7943   -8671.2898   -458.18564    1936.2592    6.5500949    12.463916    12.463916    12.463916   -441.70492 
  405000   -434.20035    1721.3936   -22889.665    -456.2286    1963.7213    6.4584936    12.522565    12.522565    12.522565   -462.25526 
  410000   -431.52703    2065.9235   -5387.9448   -457.96414    1948.2895    6.5096493    12.489676    12.489676    12.489676   -438.07891 
  415000   -429.77927    1981.0166   -2009.7244   -455.12985    1963.1157     6.460486    12.521277    12.521277    12.521277   -432.24174 
  420000   -437.58428     1845.414    5525.1441   -461.19959     1896.526    6.6873228     12.37807     12.37807     12.37807   -431.04407 
  425000   -431.17266    1919.8429    4107.5555   -455.74042    1934.8417    6.5548935    12.460873    12.460873    12.460873   -426.21224 
  430000   -430.83604    2141.9585   -26721.176   -458.24615     1994.285    6.3595132    12.587198    12.587198    12.587198   -464.09682 
  435000   -437.82755    1907.3964   -1022.3813   -462.23603    1886.2375     6.723799    12.355646    12.355646    12.355646   -439.03119 
  440000   -434.70509    1844.7979   -5585.6658   -458.31252    1936.2924    6.5499825    12.463987    12.463987    12.463987   -441.45558 
  445000   -429.14246    1955.4966    8862.3666   -454.16647    1938.1593    6.5436735    12.467991    12.467991    12.467991   -418.42162 
  450000   -434.60429    2011.6066   -5914.8216   -460.34632    1934.6234    6.5556332    12.460405    12.460405    12.460405   -441.74642 
  455000   -429.80599    1928.3336   -408.24309    -454.4824    1952.4882    6.4956507    12.498641    12.498641    12.498641    -430.3035 
  460000   -433.61071    1745.3742   -2789.0259   -455.94584    1939.9921    6.5374914     12.47192     12.47192     12.47192    -436.9878 
  465000    -436.6832    1925.9104   -11816.133    -461.3286    1928.8728    6.5751777    12.448046    12.448046    12.448046   -450.90874 
  470000   -435.67084    1708.4615   -18287.464    -457.5336    1973.0793    6.4278619    12.542425    12.542425    12.542425   -458.19184 
  475000   -428.89614     2237.699   -16234.124   -457.53142    1971.1656    6.4341026    12.538369    12.538369    12.538369   -448.86906 
  480000   -429.12307     2034.736   -5483.2042   -455.16109    1952.3628     6.496068    12.498374    12.498374    12.498374   -435.80473 
  485000   -428.90532    2275.1755   -7147.5558   -458.02018    1936.2834     6.550013    12.463967    12.463967    12.463967   -437.54337 
  490000   -429.16602    1870.9982    515.85043   -453.10872    1958.4899    6.4757451    12.511435    12.511435    12.511435   -428.53545 
  495000   -441.06345    1790.7492    7352.1359   -463.97922    1881.8866    6.7393442    12.346139    12.346139    12.346139   -432.42777 
  500000   -435.84127    2084.8844   -16202.715   -462.52103    1937.0437    6.5474422    12.465599    12.465599    12.465599   -455.43048 
  505000    -431.1132    1894.0947    3373.5492   -455.35146    1941.5237     6.532334    12.475201    12.475201    12.475201   -427.02512 
  510000   -441.15631    1768.5816     7332.581   -463.78841    1884.7962    6.7289404    12.352498    12.352498    12.352498   -432.53028 
  515000   -431.80748    1974.6444   -8476.1658   -457.07652    1948.2252    6.5098642    12.489538    12.489538    12.489538   -442.11438 
  520000   -430.25957    2237.5812   -4423.5769   -458.89335    1938.3263    6.5431097    12.468349    12.468349    12.468349   -435.61125 
  525000   -424.39923    2375.5391    11440.423   -454.79842    1932.0018    6.5645289    12.454774    12.454774    12.454774   -410.60367 
  530000   -431.83215    2044.2096    1103.6703    -457.9914    1939.6784    6.5385485    12.471248    12.471248    12.471248   -430.49599 
  535000   -435.39278    1789.8531   -11323.412   -458.29709    1948.1984    6.5099538    12.489481    12.489481    12.489481   -449.16171 
  540000   -428.67157    2124.0532    5698.3187   -455.85256      1927.52    6.5797923    12.445136    12.445136    12.445136   -421.81613 
  545000   -432.97679    1883.0152    13438.477   -457.07327    1898.4348    6.6805989    12.382221    12.382221    12.382221    -417.0534 
  550000   -430.56068    2136.9287    826.04939   -457.90643    1917.6807    6.6135523    12.423923    12.423923    12.423923   -429.57196 
  555000   -434.51818    2004.1254    16083.026   -460.16448    1875.7009    6.7615691    12.332597    12.332597    12.332597   -415.68945 
  560000    -435.7453    1942.8141    5654.0149   -460.60701    1920.1083    6.6051906    12.429164    12.429164    12.429164   -428.96932 
  565000   -427.57994    2262.9927    2273.5004    -456.5389    1927.3896    6.5802376    12.444855    12.444855    12.444855   -424.84496 
  570000   -436.07022    1876.3074   -15643.544   -460.08086    1941.5195    6.5323483    12.475192    12.475192    12.475192   -455.02708 
  575000   -432.81254    2015.9651    23970.157   -458.61035     1874.379    6.7663379    12.329699    12.329699    12.329699   -404.76996 
  580000   -427.43307    2060.3112    4718.4916   -453.79837    1926.9649    6.5816878    12.443941    12.443941    12.443941   -421.75806 
  585000   -428.38432    2213.8507    13942.983   -456.71442    1916.3925    6.6179977    12.421141    12.421141    12.421141   -411.70686 
  590000   -433.32807    1841.9677    10880.602   -456.89928    1915.2796    6.6218433    12.418736    12.418736    12.418736   -420.32114 
  595000   -431.12686    1913.5024    16965.217   -455.61348    1904.5851    6.6590258    12.395578    12.395578    12.395578   -410.95948 
  600000   -429.32518     2138.436    7877.9313   -456.69022    1901.2431    6.6707312    12.388324    12.388324    12.388324   -419.97673 
  605000   -426.93821    2467.7863    10590.729   -458.51786    1910.0308    6.6400401    12.407381    12.407381    12.407381   -414.31249 
  610000   -434.23666    1930.2389    22171.705   -458.93745    1861.7231    6.8123349    12.301886    12.301886    12.301886   -408.47322 
  615000   -431.25083    2162.3285    4583.1069   -458.92162    1919.6547    6.6067514    12.428185    12.428185    12.428185   -425.75956 
  620000   -434.53782    2193.2158    13124.387   -462.60387    1887.9915    6.7175523    12.359475    12.359475    12.359475   -419.07216 
  625000   -437.23517    1786.9501    2459.8909   -460.10233    1901.4607    6.6699676    12.388797    12.388797    12.388797   -434.31577 
  630000   -432.79897    2019.5433    10186.509   -458.64257    1890.1977    6.7097118    12.364287    12.364287    12.364287   -420.78125 
  635000   -433.59071    1948.7611   -10421.285   -458.52853    1956.3864     6.482708    12.506954    12.506954    12.506954   -446.31594 
  640000   -438.52539    1758.7039   -9410.4741   -461.03109    1927.3339    6.5804278    12.444735    12.444735    12.444735    -449.8457 
  645000   -433.17997    2095.4584   -686.08345   -459.99504    1913.8253    6.6268751    12.415592    12.415592    12.415592   -433.99951 
  650000   -431.65307    1938.7129    21210.638   -456.46231    1911.8261    6.6338048    12.411267    12.411267    12.411267    -406.3431 
  655000   -433.31119    1961.5669    9231.9816   -458.41288    1921.9798    6.5987589    12.433201    12.433201    12.433201   -422.23645 
  660000    -432.8561    1694.3298   -6638.0881   -454.53802    1939.9948    6.5374821    12.471926    12.471926    12.471926   -440.89382 
  665000   -425.34513    2141.8972    19603.886   -452.75446     1907.556     6.648655     12.40202     12.40202     12.40202   -402.00469 
  670000   -437.24092    1876.0203    3701.5696   -461.24789    1909.7589    6.6409855    12.406792    12.406792    12.406792   -432.82873 
  675000   -429.66139    2089.5805    23659.676   -456.40123     1887.976    6.7176074    12.359441    12.359441    12.359441   -401.78125 
  680000   -429.00892    2123.8972    5159.7068   -456.18791    1921.6846    6.5997727    12.432564    12.432564    12.432564   -422.82026 
  685000    -428.8421    2204.7843    14953.131   -457.05618    1917.5028    6.6141659    12.423539    12.423539    12.423539   -410.94602 
  690000   -431.28286     1956.802     2023.712   -456.32358    1947.0898    6.5136602    12.487112    12.487112    12.487112   -428.82349 
  695000   -432.08431    1953.8291   -1251.9324   -457.08698    1936.2348    6.5501776    12.463863    12.463863    12.463863   -433.59728 
  700000    -437.1984    1946.8226   -1047.5379   -462.11141    1902.4101    6.6666391    12.390858    12.390858    12.390858   -438.44224 
  705000   -429.14289    1964.3266    8020.9985    -454.2799    1925.3187    6.5873153    12.440396    12.440396    12.440396   -419.50414 
  710000   -430.16249    1976.9782    4606.6507   -455.46139    1926.1418    6.5845003    12.442169    12.442169    12.442169   -424.62436 
  715000     -429.326     2275.122    2819.1462   -458.44018     1941.635    6.5319597     12.47544     12.47544     12.47544   -425.90955 
  720000   -429.50931    2154.7571   -1129.4969   -457.08321    1940.0955    6.5371428    12.472142    12.472142    12.472142   -430.87703 
  725000   -431.75162    1925.9758    3463.6356   -456.39786    1921.2065     6.601415    12.431533    12.431533    12.431533   -427.59829 
  730000   -433.37207     1933.969    9923.8201    -458.1206    1917.2054    6.6151917    12.422897    12.422897    12.422897   -421.49697 
  735000   -430.41178    1975.0681   -19449.729   -455.68624    1979.9352    6.4056044    12.556935    12.556935    12.556935   -454.44733 
  740000   -428.42734    1976.0828   -28896.066   -453.71479    1988.5576    6.3778295    12.575137    12.575137    12.575137   -464.29199 
  745000   -428.17522    1911.2153   -6913.1716   -452.63258    1962.6083    6.4621562    12.520198    12.520198    12.520198   -436.64361 
  750000   -435.06217    1931.3522   -8678.8452   -459.77721    1936.5316    6.5491735      12.4645      12.4645      12.4645   -445.55219 
  755000   -433.73181    1777.2767   -3226.0673   -456.47518    1930.7022    6.5689475    12.451981    12.451981    12.451981   -437.61938 
  760000   -432.08689    2122.8112   -46.356762   -459.25198    1915.2198    6.6220501    12.418607    12.418607    12.418607    -432.1423 
  765000   -426.55199    1979.4989     9421.953   -451.88315    1926.5975    6.5829429     12.44315     12.44315     12.44315    -415.2222 
  770000   -433.43861    1868.0177    6038.4878   -457.34317    1915.5748    6.6208229    12.419374    12.419374    12.419374   -426.21895 
  775000   -430.13454    1808.9583   -4937.3176   -453.28333     1949.738    6.5048132     12.49277     12.49277     12.49277   -436.14291 
  780000   -434.25601     1922.034   -8170.9703   -458.85181    1940.0893    6.5371637    12.472128    12.472128    12.472128   -444.15031 
  785000   -428.61147    2006.1989   -13720.099    -454.2843    1982.5298     6.397221    12.562418    12.562418    12.562418   -445.58869 
  790000   -430.88122    2002.4296   -12046.684   -456.50582     1955.136    6.4868538    12.504289    12.504289    12.504289   -445.58178 
  795000    -430.7302     2009.013    8894.3742   -456.43905    1930.8989    6.5682785    12.452403    12.452403    12.452403   -420.01095 
  800000   -431.04297    2115.5203    600.04404   -458.11476    1925.7261    6.5859216    12.441274    12.441274    12.441274   -430.32175 
  805000    -431.9854    2106.2124   -6764.8032   -458.93808     1935.678    6.5520618    12.462668    12.462668    12.462668   -440.15833 
  810000   -432.08851    2021.9223   -6065.3044   -457.96255     1941.444    6.5326023    12.475031    12.475031    12.475031   -439.43817 
  815000   -434.67355    1931.0657   -16383.929   -459.38493    1953.0535    6.4937706    12.499848    12.499848    12.499848   -454.64556 
  820000   -435.01914    1777.9161   -7150.3146    -457.7707    1941.5776    6.5321528    12.475317    12.475317    12.475317   -443.68416 
  825000   -429.83132    2126.6432    4195.2692   -457.04545    1913.4102    6.6283129    12.414694    12.414694    12.414694   -424.82109 
  830000   -433.13555    2102.5773    19090.633   -460.04171    1873.1531    6.7707661     12.32701     12.32701     12.32701   -410.81611 
  835000   -432.70717     1989.106   -9098.8624   -458.16127    1956.3145    6.4829462    12.506801    12.506801    12.506801    -443.8172 
  840000   -435.76667    1774.9578   -11480.428   -458.48037    1949.9093    6.5042419    12.493136    12.493136    12.493136   -449.73879 
  845000    -432.2126    2332.1267    22265.095   -462.05625    1881.9665    6.7390582    12.346313    12.346313    12.346313   -406.05932 
  850000   -426.22439    2138.1164   -7662.1109   -453.58534    1960.3777    6.4695091    12.515453    12.515453    12.515453   -435.59953 
  855000   -426.59829    2084.7144   -15975.294   -453.27587    1994.4809    6.3588886     12.58761     12.58761     12.58761   -446.48525 
  860000   -432.47917    1871.2893     16524.55    -456.4256    1889.9636    6.7105428    12.363776    12.363776    12.363776   -412.98643 
  865000   -432.25786     1870.792   -4933.4298   -456.19793    1937.9313    6.5444432    12.467502    12.467502    12.467502   -438.22515 
  870000   -429.10191    2247.5415   -13334.693   -457.86314    1960.2391    6.4699667    12.515158    12.515158    12.515158    -445.4167 
  875000   -434.63862    1879.7121    -582.7349   -458.69283    1915.9093    6.6196668    12.420097    12.420097    12.420097   -435.33546 
  880000   -439.73687    1757.4484   -14607.946   -462.22651    1940.1963    6.5368033    12.472358    12.472358    12.472358   -457.42673 
  885000   -430.92591    2135.6606   -9371.3085   -458.25543    1953.7247    6.4915396    12.501279    12.501279    12.501279   -442.35346 
  890000   -431.69398    2069.9464   -12957.912   -458.18258    1937.9453     6.544396    12.467532    12.467532    12.467532   -447.36749 
  895000   -429.12905    1802.4086    12856.475   -452.19403    1928.5698    6.5762107    12.447395    12.447395    12.447395   -413.65347 
  900000   -435.05816    2015.5812    758.71812   -460.85106    1919.1954    6.6083325    12.427194    12.427194    12.427194   -434.14931 
  905000   -437.19745    1863.4791   -13312.161   -461.04393    1933.7927    6.5584493    12.458621    12.458621    12.458621   -453.26494 
  910000   -434.44836    1913.8416   -1174.3348   -458.93932    1933.5229    6.5593644    12.458042    12.458042    12.458042   -435.86556 
  915000   -430.28652     1955.575     -16327.9   -455.31154    1975.8382    6.4188868    12.548268    12.548268    12.548268   -450.42244 
  920000   -436.95025    1856.7663   -6619.9341   -460.71083    1937.0427    6.5474456    12.465596    12.465596    12.465596   -444.95379 
  925000   -430.68022    1968.7876    -10358.87   -455.87431    1959.4756    6.4724877    12.513533    12.513533    12.513533   -443.34921 
  930000   -429.52426    2020.3582    2993.1534   -455.37829    1935.1748    6.5537653    12.461588    12.461588    12.461588     -425.909 
  935000   -429.08499    2209.9445   -4194.3804   -457.36511    1941.7394    6.5316085    12.475663    12.475663    12.475663   -434.16833 
  940000   -432.49594      2212.47     16274.69   -460.80838    1881.9369    6.7391639    12.346249    12.346249    12.346249   -413.37948 
  945000   -433.97625    2114.5344   -4355.6746   -461.03543    1923.2197    6.5945049    12.435874    12.435874    12.435874   -439.20471 
  950000   -426.56363    2115.2994   -2636.8592    -453.6326    1955.7827    6.4847089    12.505667    12.505667    12.505667   -429.78246 
  955000   -435.04289    1802.5674   -8079.6969    -458.1099    1936.4053    6.5496008    12.464229    12.464229    12.464229   -444.80809 
  960000   -438.38919    1936.7903    1773.6645   -463.17382    1897.6087    6.6835071    12.380425    12.380425    12.380425   -436.28847 
  965000   -431.30574    1830.0022    16715.966   -454.72383    1913.1044    6.6293725    12.414033    12.414033    12.414033   -411.34578 
  970000   -436.03405    1850.6512    7003.3917   -459.71638    1913.8853    6.6266674    12.415722    12.415722    12.415722   -427.66813 
  975000   -428.55125     2292.463    12262.066   -457.88733    1911.0999    6.6363258    12.409696    12.409696    12.409696   -413.92487 
  980000   -429.52219    2210.7643   -2228.1079    -457.8128    1952.9124    6.4942397    12.499547    12.499547    12.499547   -432.23806 
  985000   -435.62332    1814.4483     3713.011   -458.84237    1918.5575    6.6105299    12.425817    12.425817    12.425817    -431.1771 
  990000   -428.09874    2224.9456   -15915.142   -456.57082    1976.3147     6.417339    12.549277    12.549277    12.549277   -447.73037 
  995000   -428.68484    2052.3216     2372.796    -454.9479    1955.5358    6.4855276    12.505141    12.505141    12.505141   -425.78873 
 1000000   -426.70391    2183.7331    8907.4796    -454.6486    1944.9003    6.5209932    12.482429    12.482429    12.482429   -415.89102 
 1000866   -427.48988    1902.0732    790.67937   -451.83024    1964.4805    6.4559978    12.524178    12.524178    12.524178    -426.5204 
Loop time of 301.6 on 96 procs for 1000000 steps with 100 atoms

Performance: 572.944 ns/day, 0.042 hours/ns, 3315.648 timesteps/s
100.0% CPU use with 96 MPI tasks x no OpenMP threads

MPI task timing breakdown:
Section |  min time  |  avg time  |  max time  |%varavg| %total
---------------------------------------------------------------
Pair    | 103.73     | 106.04     | 107.74     |  10.3 | 35.16
Neigh   | 0.2481     | 0.27423    | 0.30528    |   2.1 |  0.09
Comm    | 102.08     | 108.56     | 113.36     |  27.7 | 36.00
Output  | 0.018843   | 0.019637   | 0.020265   |   0.3 |  0.01
Modify  | 70.34      | 73.741     | 79.682     |  29.9 | 24.45
Other   |            | 12.96      |            |       |  4.30

Nlocal:    1.04167 ave 2 max 0 min
Histogram: 19 0 0 0 0 54 0 0 0 23
Nghost:    386.125 ave 405 max 368 min
Histogram: 3 7 9 11 24 16 9 9 4 4
Neighs:    67.3854 ave 196 max 0 min
Histogram: 19 4 18 21 14 4 6 5 2 3

Total # of neighbors = 6469
Ave neighs/atom = 64.69
Neighbor list builds = 31011
Dangerous builds = 0
unfix th

#
# Now the quenching at 8.5e9 K/s from 2000 K to 300 K
#
fix thq all npt temp 2000 300 0.2 iso 0 0 2
thermo 50000
run 100000000
Memory usage per processor = 2.67099 Mbytes
Step TotEng Temp Press PotEng Volume Density Lx Ly Lz Enthalpy 
 1000866   -427.48988    1902.0732    790.67937   -451.83024    1964.4805    6.4559978    12.524178    12.524178    12.524178    -426.5204 
 1050000   -428.26162     1934.812    16147.233   -453.02093    1921.6403    6.5999249    12.432468    12.432468    12.432468   -408.89473 
 1100000   -432.81726    2163.6383   -8000.1392   -460.50481    1928.0315    6.5780467    12.446236    12.446236    12.446236   -442.44449 
 1150000   -435.66688     2058.317     10019.78   -462.00666    1884.5917    6.7296706    12.352052    12.352052    12.352052   -423.88091 
 1200000   -426.85257    2060.4714    -13184.62   -453.21991    1964.9245     6.454539    12.525122    12.525122    12.525122   -443.02231 
 1250000    -432.9409    1867.1928    8963.6705   -456.83491    1921.0211    6.6020521    12.431133    12.431133    12.431133    -422.1934 
 1300000   -431.60388    1978.6966    11092.542   -456.92477    1930.6863    6.5690018    12.451946    12.451946    12.451946   -418.23693 
 1350000    -430.5551    2038.9873    11798.438   -456.64751      1893.95    6.6964183    12.372463    12.372463    12.372463   -416.60804 
 1400000   -424.30935    2239.3013    10428.221   -452.96514    1936.8503     6.548096    12.465184    12.465184    12.465184   -411.70281 
 1450000   -431.12857    1876.8355   -14476.312   -455.14597    1972.2652    6.4305154      12.5407      12.5407      12.5407   -448.94878 
 1500000   -430.01779     2014.647    839.59384   -455.79874    1963.4473    6.4593949    12.521982    12.521982    12.521982   -428.98888 
 1550000    -432.8577    2018.3316    8478.9114   -458.68579    1913.1502    6.6292138    12.414132    12.414132    12.414132   -422.73308 
 1600000    -429.8458    1854.8492   -16046.165   -453.58185    1977.8924      6.41222    12.552615    12.552615    12.552615   -449.65485 
 1650000    -431.3892     1887.863    7043.9771   -455.54772    1907.7189    6.6480871    12.402373    12.402373    12.402373   -423.00191 
 1700000   -429.53327    1956.1959    5197.9559   -454.56623    1921.7738    6.5994664    12.432756    12.432756    12.432756   -423.29844 
 1750000   -427.96669    2064.7683    10855.296   -454.38903     1925.632    6.5862435    12.441071    12.441071    12.441071   -414.91988 
 1800000   -423.43788    2096.8133   -5937.2161   -450.27028    1984.2485    6.3916799    12.566047    12.566047    12.566047   -430.79095 
 1850000   -432.79373    1850.4106   -7559.3985   -456.47298    1939.9371    6.5376766    12.471802    12.471802    12.471802   -441.94675 
 1900000   -422.62179    1995.8996    12554.844   -448.16283    1953.2732    6.4930404    12.500316    12.500316    12.500316   -407.31571 
 1950000   -429.32562    1863.4529    22657.812   -453.17177    1910.4954    6.6384256    12.408387    12.408387    12.408387    -402.3076 
 2000000   -434.17591    1846.1626    -696.9189    -457.8008    1929.4086    6.5733518    12.449199    12.449199    12.449199   -435.01517 
 2050000   -434.20994     1804.871    8097.5907   -457.30643    1907.1899     6.649931    12.401227    12.401227    12.401227   -424.57078 
 2100000   -434.06769    2093.3108   -17148.594   -460.85527    1947.8474    6.5111269    12.488731    12.488731    12.488731   -454.91611 
 2150000   -434.30941    1923.4264    -10087.23   -458.92302      1949.54    6.5054738    12.492347    12.492347    12.492347   -446.58362 
 2200000   -430.27104     2003.222    8955.1112   -455.90578    1915.6101    6.6207011     12.41945     12.41945     12.41945   -419.56404 
 2250000   -432.74457    1974.4168    7534.6146   -458.01069    1919.2412    6.6081748    12.427293    12.427293    12.427293   -423.71888 
 2300000   -431.72014    2099.1235    -14018.19   -458.58211    1959.9481    6.4709271    12.514539    12.514539    12.514539   -448.86864 
 2350000   -432.88293    1785.2488   -21378.454   -455.72832     1994.604    6.3584959    12.587869    12.587869    12.587869   -459.49769 
 2400000   -431.71027    1984.9649   -11327.149   -457.11138    1954.2216    6.4898892    12.502339    12.502339    12.502339   -445.52633 
 2450000   -430.48618    1975.3211    4759.8859   -455.76388    1920.5544    6.6036566    12.430126    12.430126    12.430126   -424.78043 
 2500000   -429.97713    2001.0227   -7815.3988   -455.58372    1955.8808    6.4843836    12.505876    12.505876    12.505876   -439.51789 
 2550000   -434.98503    1852.2069    2339.4512   -458.68727    1920.1236    6.6051382    12.429197    12.429197    12.429197   -432.18133 
 2600000   -429.89679    1961.0064     13076.54    -454.9913    1898.1171    6.6817172    12.381531    12.381531    12.381531   -414.40486 
 2650000    -429.8012    2217.5052    -7153.796   -458.17807    1963.3756    6.4596309     12.52183     12.52183     12.52183   -438.56777 
 2700000   -437.43745    1944.5442   -2214.2059   -462.32131    1919.4823     6.607345    12.427813    12.427813    12.427813   -440.09017 
 2750000   -432.03305    2074.2649   -327.59372   -458.57691    1936.6237     6.548862    12.464698    12.464698    12.464698   -432.42903 
 2800000   -429.61869    2073.2163    11440.106   -456.14913    1896.7406    6.6865661    12.378537    12.378537    12.378537   -416.07529 
 2850000   -434.62615    1929.3103    11805.411   -459.31506    1900.4435    6.6735378    12.386587    12.386587    12.386587     -420.623 
 2900000   -436.58955    1672.7129   -20958.637   -457.99484    1978.6234    6.4098511    12.554162    12.554162    12.554162   -462.47262 
 2950000   -436.90569    1864.0387   -4626.6061   -460.75933    1937.0608    6.5473843    12.465635    12.465635    12.465635   -442.49934 
 3000000   -436.98994    1893.8657    -20978.18   -461.22528    1943.3589    6.5261652    12.479131    12.479131    12.479131   -462.43541 
 3050000   -433.61383    2079.4085    10288.988   -460.22351    1899.5371    6.6767221    12.384617    12.384617    12.384617   -421.41522 
 3100000   -431.96021    1935.6198   -1045.4156   -456.72986     1936.932    6.5478197    12.465359    12.465359    12.465359   -433.22406 
 3150000   -430.45982    2157.3273    -10671.72   -458.06661    1956.4121    6.4826228    12.507009    12.507009    12.507009   -443.49102 
 3200000   -428.28328    2124.0871    16638.431    -455.4647    1912.8968    6.6300918    12.413584    12.413584    12.413584   -408.41805 
 3250000   -432.33431    2071.5445    -8904.488   -458.84336    1952.5822    6.4953382    12.498842    12.498842    12.498842   -443.18626 
 3300000   -433.85237    2048.7735    16446.172   -460.07002    1886.6731    6.7222463    12.356597    12.356597    12.356597   -414.48587 
 3350000   -436.47891    1744.7059    6313.2138   -458.80548    1910.8761     6.637103    12.409211    12.409211    12.409211   -428.94929 
 3400000   -437.82029    1925.9549   -11013.354   -462.46627    1927.2992    6.5805461     12.44466     12.44466     12.44466   -451.06854 
 3450000   -431.48532    2144.4796    2519.8961    -458.9277     1919.923    6.6058284    12.428764    12.428764    12.428764   -428.46568 
 3500000   -432.34071    2140.0814   -4754.1201   -459.72681    1927.2551    6.5806967    12.444565    12.444565    12.444565   -438.05943 
 3550000    -430.1578    1907.2717   -7976.8867   -454.56468    1971.3827     6.433394    12.538829    12.538829    12.538829   -439.97288 
 3600000   -434.09018    1926.8556    22062.122   -458.74768    1868.8768    6.7862586    12.317623    12.317623    12.317623   -408.35557 
 3650000   -435.74309      1864.59    8382.7875   -459.60379    1913.3431    6.6285452    12.414549    12.414549    12.414549   -425.73224 
 3700000    -424.9912     2292.086    9268.9333   -454.32246    1918.2911    6.6114479    12.425241    12.425241    12.425241   -413.89347 
 3750000   -435.82461    1742.2844    5564.1016   -458.12019    1909.3185    6.6425176    12.405839    12.405839    12.405839   -429.19385 
 3800000   -441.71956    1324.6989   -1150.9681   -458.67141    1916.5957    6.6172961     12.42158     12.42158     12.42158    -443.0964 
 3850000   -435.55769    2119.6277   -2668.8663   -462.68205    1920.5973    6.6035091    12.430219    12.430219    12.430219   -438.75698 
 3900000   -435.36814    1867.3399    4050.4246   -459.26403    1911.4232    6.6352032    12.410395    12.410395    12.410395   -430.53592 
 3950000   -437.43002    1679.7633   -630.18993   -458.92554    1908.1985    6.6464163    12.403412    12.403412    12.403412   -438.18058 
 4000000   -431.57319     1799.976   -12236.787   -454.60704    1958.9421    6.4742502    12.512398    12.512398    12.512398   -446.53481 
 4050000   -436.52023    1772.6674   -5008.1812   -459.20462    1932.0058    6.5645153    12.454782    12.454782    12.454782   -442.55941 
 4100000   -441.14675     1896.443   -21829.229   -465.41506    1937.0841    6.5473056    12.465685    12.465685    12.465685     -467.539 
 4150000   -438.73099    1789.0119   -6943.8918   -461.62454    1924.9909     6.588437     12.43969     12.43969     12.43969   -447.07397 
 4200000   -436.25597    1724.1517   -16243.427   -458.31952    1964.0449    6.4574296    12.523252    12.523252    12.523252   -456.16815 
 4250000   -432.25226    1720.0938    1563.2777   -454.26388    1936.7424    6.5484608    12.464952    12.464952    12.464952   -430.36254 
 4300000   -427.21656    2052.6634    1420.2426   -453.48399    1962.7958    6.4615388    12.520597    12.520597    12.520597   -425.47665 
 4350000   -432.23186    1866.3667   -3101.8761   -456.11529    1936.7188    6.5485405    12.464902    12.464902    12.464902   -435.98142 
 4400000    -438.3663    1759.3805   -25347.064   -460.88066    1956.0923    6.4836825    12.506327    12.506327    12.506327   -469.31245 
 4450000   -432.10171     1995.166   -6966.5036   -457.63335     1962.083    6.4638863    12.519081    12.519081    12.519081   -440.63314 
 4500000   -437.52938    1763.6892   -9991.2576   -460.09888    1949.5083    6.5055795     12.49228     12.49228     12.49228   -449.68662 
 4550000   -435.14678    1937.1976    12190.873   -459.93662    1881.6582    6.7401623    12.345639    12.345639    12.345639   -420.82935 
 4600000   -432.98199    1810.4686   -7272.9107   -456.15011    1940.3803    6.5361834    12.472752    12.472752    12.472752   -441.79014 
 4650000   -430.60921     2124.262   -1088.3694   -457.79287    1930.2702    6.5704179    12.451052    12.451052    12.451052   -431.92046 
 4700000   -439.58183    1489.2462   -17651.587   -458.63935     1966.985    6.4477776    12.529498    12.529498    12.529498   -461.25261 
 4750000   -425.05084    2047.3854    8462.2118   -451.25073    1950.7752    6.5013547    12.494985    12.494985    12.494985   -414.74744 
 4800000   -433.02329    1678.4272     474.8914   -454.50171    1935.3801    6.5530701    12.462029    12.462029    12.462029   -432.44964 
 4850000   -438.88766    1841.5625     12455.52   -462.45368    1874.9961    6.7641109    12.331052    12.331052    12.331052   -424.31121 
 4900000   -432.34553    2019.6955   -9620.5317   -458.19107    1956.0654    6.4837718     12.50627     12.50627     12.50627   -444.09104 
 4950000    -434.5158    1787.9956    3997.3498   -457.39634     1918.321    6.6113449    12.425306    12.425306    12.425306   -429.72969 
 5000000   -434.63275    1989.4305    3483.3045   -460.09101     1916.017     6.619295    12.420329    12.420329    12.420329   -430.46713 
 5050000   -430.77954     2091.648    4690.5973   -457.54584     1925.213     6.587677    12.440168    12.440168    12.440168   -425.14321 
 5100000   -433.41397    1739.7779   -987.28737   -455.67748    1930.1763    6.5707375     12.45085     12.45085     12.45085   -434.60337 
 5150000   -434.92891    2032.3808    7202.1965   -460.93679    1890.1978    6.7097114    12.364287    12.364287    12.364287   -426.43198 
 5200000   -438.64115    1785.6925   -2357.6153   -461.49222     1910.247    6.6392886    12.407849    12.407849    12.407849    -441.4521 
 5250000   -438.95179    1713.9854   -9154.0064   -460.88524    1936.0761    6.5507144    12.463523    12.463523    12.463523   -450.01353 
 5300000   -428.27142    2274.2385   -4491.2369   -457.37429    1957.3371     6.479559    12.508979    12.508979    12.508979   -433.75824 
 5350000   -434.21222     1715.532    1452.8772   -456.16546     1924.958    6.5885498    12.439619    12.439619    12.439619   -432.46664 
 5400000   -434.70066     1932.075   -2925.5859   -459.42495    1929.1932    6.5740859    12.448735    12.448735    12.448735   -438.22339 
 5450000   -428.23137    2277.8707   -11482.715   -457.38072    1949.1012    6.5069386     12.49141     12.49141     12.49141   -442.20048 
 5500000   -429.54312    1906.8429   -4059.1289   -453.94452    1963.5818    6.4589524    12.522268    12.522268    12.522268   -434.51788 
 5550000   -439.49165    1751.9848   -1376.1079   -461.91136    1921.5643    6.6001859    12.432305    12.432305    12.432305   -441.14208 
 5600000   -429.78508    2160.3854   -26318.629     -457.431    1990.0154    6.3731574    12.578209    12.578209    12.578209   -462.47466 
 5650000    -434.3905    1747.4113   -22936.177   -456.75169    1990.1564    6.3727059    12.578506    12.578506    12.578506   -462.88085 
 5700000   -433.98213     1988.701   -9242.3376   -459.43105    1941.5199    6.5323469    12.475193    12.475193    12.475193   -445.18201 
 5750000   -438.45427    1814.9746    8800.3663   -461.68006    1888.1257    6.7170747    12.359768    12.359768    12.359768   -428.08326 
 5800000   -424.88506    2203.7593   -6335.6503   -453.08603    1962.9535    6.4610197    12.520932    12.520932    12.520932   -432.64737 
 5850000   -435.93481    1871.5051    12707.196     -459.884    1878.7215     6.750698    12.339213    12.339213    12.339213   -421.03427 
 5900000   -433.48312    1677.0649   -9717.5204   -454.94411    1973.2214    6.4273992    12.542726    12.542726    12.542726   -445.45111 
 5950000   -431.75393    2008.6384    5106.0302   -457.45798     1940.425    6.5360328    12.472848    12.472848    12.472848   -425.56992 
 6000000   -434.42838     2008.639   -15274.526   -460.13244    1951.0835    6.5003275    12.495643    12.495643    12.495643   -453.02925 
 6050000   -434.02411     1894.929    1324.8532   -458.27305    1935.0612    6.5541501    12.461344    12.461344    12.461344   -432.42399 
 6100000   -432.49908    1955.9607   -1049.6659   -457.52903    1930.4672    6.5697473    12.451475    12.451475    12.451475   -433.76383 
 6150000   -433.15427    2058.6818   -10884.899   -459.49871    1949.0253    6.5071919    12.491248    12.491248    12.491248   -446.39559 
 6200000   -438.54994    1851.7912    1448.1126   -462.24686    1897.3338    6.6844755    12.379827    12.379827    12.379827   -436.83505 
 6250000   -428.76402    2106.7987   -21979.864    -455.7242    1993.9836    6.3604743    12.586564    12.586564    12.586564   -456.11899 
 6300000   -435.44098    1930.8667    993.72677    -460.1498    1923.4136    6.5938399    12.436292    12.436292    12.436292   -434.24801 
 6350000   -438.72303    1993.0901   -8055.7977   -464.22811    1908.9733    6.6437186    12.405091    12.405091    12.405091   -448.32141 
 6400000   -437.64326    1909.8454   -653.13077   -462.08308     1907.562     6.648634    12.402033    12.402033    12.402033   -438.42088 
 6450000   -437.48184    1773.8577    14859.422   -460.18146    1890.2962    6.7093621    12.364502    12.364502    12.364502   -419.95025 
 6500000   -444.02202    1617.9758    16312.121   -464.72686    1857.2403    6.8287781    12.292004    12.292004    12.292004   -425.11304 
 6550000   -434.08607    1786.1076   -13318.216   -456.94245    1963.8052    6.4582179    12.522743    12.522743    12.522743   -450.41035 
 6600000   -438.61121    1836.0842   -6821.4924   -462.10713    1922.5486    6.5968069    12.434427    12.434427    12.434427   -446.79673 
 6650000   -436.92826    1984.9277    18145.288   -462.32889    1866.1988     6.795997    12.311736    12.311736    12.311736   -415.79282 
 6700000   -434.49198    1868.4699   -2148.0344   -458.40233    1947.5279    6.5121949    12.488048    12.488048    12.488048   -437.10303 
 6750000   -437.33727    1891.7378   -7919.7696   -461.54537     1934.717    6.5553162    12.460606    12.460606    12.460606   -446.90083 
 6800000       -439.6    1715.2731   -6135.3584   -461.54993    1933.4515    6.5596067    12.457888    12.457888    12.457888   -447.00394 
 6850000   -433.64344    2083.4094    2300.0693   -460.30432    1911.9522    6.6333676     12.41154     12.41154     12.41154   -430.89866 
 6900000   -431.95993    1761.0749   -5732.4777   -454.49598    1947.4864     6.512334    12.487959    12.487959    12.487959   -438.92791 
 6950000   -429.57923    2081.7323    114.22624   -456.21864    1941.3808    6.5328149    12.474895    12.474895    12.474895   -429.44082 
 7000000    -433.6778    1846.5059   -13104.715   -457.30708    1966.8326    6.4482772    12.529175    12.529175    12.529175   -449.76515 
 7050000   -431.66147    1870.2626    2083.2703   -455.59476     1935.629    6.5522274    12.462563    12.462563    12.462563   -429.14462 
 7100000   -432.70651     1682.062   -9106.0172   -454.23144    1956.2401    6.4831928    12.506642    12.506642    12.506642   -443.82485 
 7150000   -430.63116    2176.7534   -12607.523   -458.48654     1964.731    6.4551745    12.524711    12.524711    12.524711   -446.09162 
 7200000   -433.63631     1935.962   -5604.9146   -458.41034    1929.9281    6.5715825    12.450316    12.450316    12.450316    -440.3878 
 7250000   -439.26665    1890.1606    2383.4157   -463.45457    1894.4799    6.6945453    12.373617    12.373617    12.373617    -436.4484 
 7300000    -435.2648    1850.6384    8462.8867   -458.94696    1911.8174    6.6338351    12.411248    12.411248    12.411248   -425.16635 
 7350000   -436.86238    1944.7813   -17124.186   -461.74927    1942.5828    6.5287728    12.477469    12.477469    12.477469   -457.62485 
 7400000   -434.62496    1806.5481   -3524.4855   -457.74291    1952.3511    6.4961068    12.498349    12.498349    12.498349   -438.91976 
 7450000   -435.49513    2030.6041    -11461.67   -461.48027    1941.3155    6.5330346    12.474756    12.474756    12.474756   -449.38294 
 7500000   -436.43308    1977.9802    3658.4732    -461.7448    1914.6033    6.6241825    12.417274    12.417274    12.417274    -432.0612 
 7550000    -436.1775    1878.9684   -6166.4512    -460.2222    1942.3081     6.529696    12.476881    12.476881    12.476881   -443.65305 
 7600000   -432.83323    1731.0905    5316.2222   -454.98557    1944.4912    6.5223651    12.481554    12.481554    12.481554   -426.38117 
 7650000   -440.23057    1929.5465   -9109.3657   -464.92251    1913.2858    6.6287438    12.414425    12.414425    12.414425   -451.10879 
 7700000    -439.5937    1734.5724   -10079.544    -461.7906    1934.5849    6.5557637    12.460322    12.460322    12.460322   -451.76448 
 7750000   -440.14175    1882.3617    610.92737   -464.22987    1891.4754    6.7051793    12.367072    12.367072    12.367072    -439.4205 
 7800000   -437.07155    1805.5964   -3744.9008   -460.17733    1921.2979    6.6011009     12.43173     12.43173     12.43173   -441.56236 
 7850000    -437.1296     1950.104    14835.799    -462.0846    1882.1516    6.7383954    12.346718    12.346718    12.346718   -419.70129 
 7900000   -434.60612    1845.9194    3663.4312    -458.2279    1923.1166    6.5948582    12.435651    12.435651    12.435651   -430.20885 
 7950000   -429.65891    2224.9023    11877.496   -458.13044     1914.111     6.625886     12.41621     12.41621     12.41621   -415.46894 
 8000000   -437.58321    1745.9434    -5760.481   -459.92562    1916.1125    6.6189651    12.420536    12.420536    12.420536   -444.47242 
 8050000   -434.74735     1942.271   -6743.8931   -459.60211     1934.689    6.5554108    12.460546    12.460546    12.460546   -442.89086 
 8100000   -432.91236     1569.532   -2355.3706   -452.99728    1950.2105    6.5032372    12.493779    12.493779    12.493779   -435.77938 
 8150000   -431.17305    1881.3479    1814.5608   -455.24819    1934.6426    6.5555683    12.460446    12.460446    12.460446   -428.98195 
 8200000   -437.42095    1935.7474    7029.9907   -462.19223    1892.5526    6.7013629    12.369419    12.369419    12.369419   -429.11685 
 8250000   -429.96424    2201.7563   -1495.1998   -458.13957    1940.4611    6.5359112    12.472925    12.472925    12.472925   -431.77514 
 8300000   -436.80931    1828.9467    -4120.959    -460.2139    1920.4228    6.6041089    12.429842    12.429842    12.429842   -441.74883 
 8350000    -437.1565    1674.5834    2372.9648   -458.58573    1895.2234    6.6919192    12.375235    12.375235    12.375235   -434.34951 
 8400000   -440.32026    1756.0832   -9642.7423   -462.79242    1929.4514    6.5732059    12.449291    12.449291    12.449291   -451.93271 
 8450000    -433.1353    2017.8699   -15726.538   -458.95749    1950.5457    6.5021195    12.494495    12.494495    12.494495   -452.28134 
 8500000    -432.8956    2020.7752   -7707.7309   -458.75496    1936.7769    6.5483439    12.465026    12.465026    12.465026   -442.21302 
 8550000   -435.53503    1870.2796   -7737.0086   -459.46854    1914.6536    6.6240086    12.417383    12.417383    12.417383   -444.78101 
 8600000   -439.93043    1653.9458    4746.1043   -461.09557    1900.0081    6.6750671    12.385641    12.385641    12.385641   -434.30207 
 8650000   -429.69428    1896.7878   -13262.154   -453.96701    1958.1182    6.4769743    12.510643    12.510643    12.510643   -445.90277 
 8700000   -436.25183    1782.6863   -8191.3319   -459.06442    1946.5261    6.5155465    12.485907    12.485907    12.485907   -446.20369 
 8750000     -435.874    1756.5061     322.1982   -458.35158    1923.6559    6.5930096    12.436814    12.436814    12.436814   -435.48715 
 8800000    -435.1509    2007.4865    8901.0728   -460.84021    1886.7438    6.7219945    12.356751    12.356751    12.356751   -424.66888 
 8850000   -439.81768    1589.9524    -10130.25   -460.16391    1935.1392    6.5538859    12.461512    12.461512    12.461512   -452.05319 
 8900000   -433.13425    1900.6561    11687.772   -457.45648     1917.846    6.6129822     12.42428     12.42428     12.42428   -419.14369 
 8950000   -442.30443    1771.8333    1270.6418   -464.97815    1904.5661    6.6590924    12.395537    12.395537    12.395537   -440.79398 
 9000000   -439.79027    1639.4076   -7800.1114   -460.76937    1931.2216    6.5671809    12.453097    12.453097    12.453097   -449.19232 
 9050000   -440.17059    1696.3871   -9359.6466   -461.87884    1927.6916    6.5792066    12.445505    12.445505    12.445505   -451.43184 
 9100000   -437.71974    1919.1175    1673.5342   -462.27821    1904.8402    6.6581342    12.396132    12.396132    12.396132   -435.73006 
 9150000   -435.70997    1891.6932    474.90516    -459.9175     1915.033    6.6226959    12.418203    12.418203    12.418203   -435.14233 
 9200000   -434.36059     1928.855   -9377.4187   -459.04367     1948.941    6.5074734    12.491068    12.491068    12.491068   -445.76759 
 9250000    -441.6152    1731.2729   -20044.092   -463.76988    1946.2178    6.5165786    12.485247    12.485247    12.485247   -465.96344 
 9300000   -438.51987    1721.8576   -20745.471   -460.55406    1952.7394    6.4948153    12.499177    12.499177    12.499177   -463.80454 
 9350000    -433.3746    2019.8813   -3159.8873   -459.22252    1924.3118    6.5907624    12.438227    12.438227    12.438227   -437.16982 
 9400000   -433.78375    2230.4508    15496.316   -462.32628    1887.5679    6.7190597     12.35855     12.35855     12.35855   -415.52712 
 9450000    -441.3626    1489.6091   -16118.896   -460.42476    1951.1991    6.4999422     12.49589     12.49589     12.49589   -460.99288 
 9500000   -437.15278    1690.0423    17050.457   -458.77984    1891.1726     6.706253    12.366412    12.366412    12.366412   -417.02681 
 9550000   -439.02849    1742.7148   -11463.447   -461.32959    1933.5688     6.559209     12.45814     12.45814     12.45814   -452.86303 
 9600000   -444.92532    1722.2791    9941.2991    -466.9649       1873.2    6.7705965    12.327113    12.327113    12.327113   -433.30235 
 9650000   -429.72319    2077.3321   -14.083889    -456.3063     1950.704    6.5015919    12.494833    12.494833    12.494833   -429.74034 
 9700000   -435.86544    1900.8389   -9263.6417   -460.19001    1929.0563    6.5745524    12.448441    12.448441    12.448441   -447.01907 
 9750000   -438.40124    1582.0513    15642.403   -458.64636    1886.7898    6.7218307    12.356852    12.356852    12.356852   -419.98009 
 9800000    -435.4567    2008.8743   -5001.5182   -461.16377    1924.4696    6.5902217    12.438567    12.438567    12.438567   -441.46432 
 9850000    -433.4642    2197.9713    13452.993    -461.5911    1898.4621     6.680503    12.382281    12.382281    12.382281   -417.52339 
 9900000   -441.49458    1710.6904    7646.5009   -463.38586    1883.6435    6.7330584    12.349979    12.349979    12.349979   -432.50476 
 9950000   -434.06891    1931.7462    2066.2068   -458.78899    1929.7542    6.5721745    12.449942    12.449942    12.449942   -431.58025 
10000000   -431.96415    1906.9536   -15146.201   -456.36697    1957.0868    6.4803878    12.508446    12.508446    12.508446   -450.46551 
10050000   -435.81914    1906.2574   -2563.0618   -460.21305    1905.1259    6.6571355    12.396752    12.396752    12.396752   -438.86684 
10100000   -440.49834    1822.4278   -3934.7429    -463.8195    1891.5001    6.7050916    12.367126    12.367126    12.367126   -445.14363 
10150000   -439.36419    1771.5526    15221.079   -462.03431    1880.9581     6.742671    12.344108    12.344108    12.344108   -421.49461 
10200000   -434.17629    2127.9313   -4445.9723    -461.4069    1907.6665    6.6482698     12.40226     12.40226     12.40226   -439.46998 
10250000   -437.25282    1690.7584   -10158.075   -458.88904    1943.6648    6.5251384    12.479785    12.479785    12.479785   -449.57599 
10300000   -433.48283    1823.3686   -4855.5752   -456.81603    1936.9047    6.5479119    12.465301    12.465301    12.465301   -439.35284 
10350000   -438.49875    1928.2382   -6102.0004   -463.17394    1923.0949    6.5949328    12.435605    12.435605    12.435605   -445.82299 
10400000   -437.76567    1773.3071    6402.7209   -460.45825    1916.9806    6.6159674    12.422411    12.422411    12.422411   -430.10491 
10450000   -436.54694    1971.6378    19396.348    -461.7775    1871.8063    6.7756378    12.324055    12.324055    12.324055   -413.88639 
10500000   -438.86155    1730.4458    -1898.615   -461.00564    1913.9769    6.6263504     12.41592     12.41592     12.41592   -441.12965 
10550000   -437.63012    1917.4486    12309.782   -462.16724    1880.7752    6.7433266    12.343708    12.343708    12.343708   -423.17982 
10600000   -438.78065     1613.663   -12847.651    -459.4303    1930.1108    6.5709605    12.450709    12.450709    12.450709   -454.25797 
10650000   -436.36007    1837.5575    5389.2914   -459.87484    1906.3419    6.6528892    12.399388    12.399388    12.399388   -429.94765 
10700000   -444.31359    1647.4099   -13215.604   -465.39509    1911.0086    6.6366429    12.409498    12.409498    12.409498   -460.07661 
10750000   -440.57742    1712.3875    7507.5894   -462.49042    1892.9403    6.6999901    12.370264    12.370264    12.370264   -431.70735 
10800000   -440.09927     1755.472    4966.2814   -462.56361    1893.1967    6.6990829    12.370823    12.370823    12.370823   -434.23091 
10850000   -437.93648    1820.1465    32807.129   -461.22845     1856.219    6.8325352    12.289751    12.289751    12.289751   -399.92742 
10900000   -439.12754    1888.1589    21868.384   -463.28984    1869.7245    6.7831818    12.319485    12.319485    12.319485   -413.60735 
10950000   -440.98561    1562.3969   -1190.6484   -460.97922    1921.9259     6.598944    12.433084    12.433084    12.433084   -442.41388 
11000000    -442.2328    1761.7803   -11262.308   -464.77787    1916.3737    6.6180628      12.4211      12.4211      12.4211   -455.70372 
11050000   -434.26894    1936.9554    648.52798   -459.05568    1922.7173    6.5962278    12.434791    12.434791    12.434791   -433.49066 
11100000   -438.10614    1972.2017   -8971.5803   -463.34392    1912.2171    6.6324487    12.412113    12.412113    12.412113   -448.81383 
11150000   -440.33251    1612.4565   -495.14685   -460.96671    1919.1862    6.6083642    12.427174    12.427174    12.427174   -440.92562 
11200000   -438.17562    1948.5089    -6316.762   -463.11021    1911.6528    6.6344063    12.410892    12.410892    12.410892   -445.71253 
11250000   -439.59387    1762.9445   -17149.892   -462.15384    1939.7917    6.5381668    12.471491    12.471491    12.471491   -460.35764 
11300000   -436.17906    1830.3864   -2738.7012   -459.60206    1931.1294    6.5674945    12.452899    12.452899    12.452899   -439.48006 
11350000   -436.21242    1979.5139    613.83803   -461.54377    1901.9068    6.6684033    12.389765    12.389765    12.389765   -435.48374 
11400000   -439.69652    1695.8942   -8696.5519   -461.39846    1929.9722    6.5714322    12.450411    12.450411    12.450411   -450.17233 
11450000   -436.62998    1957.0396   -2878.0067   -461.67374    1905.5788    6.6555536    12.397734    12.397734    12.397734   -440.05299 
11500000    -436.0511     1947.072   -729.03903    -460.9673    1916.2733    6.6184097    12.420883    12.420883    12.420883   -436.92306 
11550000   -434.72277    1833.9656   -11932.669   -458.19158    1948.9727    6.5073674    12.491136    12.491136    12.491136   -449.23831 
11600000   -434.55015    1861.0837   -185.66499   -458.36599    1916.2433    6.6185132    12.420818    12.420818    12.420818   -434.77221 
11650000   -437.70453    1918.2368   -5410.8793   -462.25174    1924.9138    6.5887011    12.439524    12.439524    12.439524   -444.20536 
11700000    -435.4092    1754.1383   -5233.6327   -457.85647     1949.845    6.5044561    12.492999    12.492999    12.492999   -441.77852 
11750000    -434.9858    2006.9722    18051.582   -460.66854    1891.9388     6.703537    12.368082    12.368082    12.368082    -413.6695 
11800000   -435.12824    1805.9303   -1305.0237   -458.23828    1926.4635    6.5834009    12.442861    12.442861    12.442861    -436.6974 
11850000   -436.68643    1759.9548    17413.157   -459.20814    1880.1914    6.7454203     12.34243     12.34243     12.34243   -416.25169 
11900000   -441.24003    1932.4116    9827.1217   -465.96862    1880.5408     6.744167    12.343195    12.343195    12.343195   -429.70553 
11950000   -435.92305    1779.6976   -9763.9165   -458.69741    1941.2613    6.5332171    12.474639    12.474639    12.474639   -447.75341 
12000000   -441.77153    1661.6421   -3969.5363   -463.03515    1908.8899    6.6440089     12.40491     12.40491     12.40491   -446.50097 
12050000   -432.52388    1935.5513    4612.3525   -457.29266    1941.5236    6.5323346    12.475201    12.475201    12.475201   -426.93462 
12100000   -438.83417    1693.8174   -918.49272   -460.50954    1905.4831    6.6558878    12.397526    12.397526    12.397526   -439.92655 
12150000   -434.48966    1939.0011    12483.183   -459.30258    1896.5083    6.6873851    12.378032    12.378032    12.378032   -419.71323 
12200000   -440.00475    1830.6276   -9629.9206   -463.43084     1904.575    6.6590613    12.395556    12.395556    12.395556   -451.45224 
12250000   -438.01908    1770.0393   -13783.352   -460.66983    1948.8657    6.5077247    12.490907    12.490907    12.490907   -454.78496 
12300000   -443.00664      1693.46    6496.5686   -464.67744     1869.356    6.7845193    12.318675    12.318675    12.318675   -435.42671 
12350000   -434.85579     1893.446   -21739.994   -459.08575    1972.4256    6.4299922     12.54104     12.54104     12.54104    -461.6197 
12400000   -440.03958    1728.1301    -11787.17   -462.15404    1924.7704     6.589192    12.439215    12.439215    12.439215   -454.20007 
12450000   -436.46636    2114.0635    4978.3031   -463.51952    1901.5119     6.669788    12.388908    12.388908    12.388908   -430.55796 
12500000   -437.74661    2095.1269      7166.26   -464.55743    1898.5111    6.6803303    12.382387    12.382387    12.382387   -429.25489 
12550000   -441.44824    1647.3674    26356.677    -462.5292    1854.7699    6.8378733    12.286552    12.286552    12.286552   -410.93627 
12600000   -438.06678    1797.2984   -16727.158   -461.06637    1955.6635     6.485104    12.505413    12.505413    12.505413   -458.48444 
12650000   -440.47314    1839.0593    6264.1598   -464.00713    1884.5906    6.7296746    12.352049    12.352049    12.352049    -433.1048 
12700000   -443.49803    1770.7302   -1263.6709   -466.15763     1894.847    6.6932483    12.374416    12.374416    12.374416   -444.99253 
12750000    -441.8159    1737.8312    19595.137    -464.0545    1853.5135    6.8425084    12.283777    12.283777    12.283777   -419.14683 
12800000   -440.83062     1927.013    16192.712   -465.49013    1853.4846     6.842615    12.283713    12.283713    12.283713   -422.09801 
12850000   -439.00638    1662.9932   -6669.7216    -460.2873    1928.2906    6.5771631    12.446794    12.446794    12.446794   -447.03369 
12900000   -441.60374     1513.928    -1444.194   -460.97711    1917.4543    6.6143331    12.423435    12.423435    12.423435   -443.33213 
12950000   -440.09703    1636.1776    20254.634   -461.03479    1872.2783    6.7739295    12.325091    12.325091    12.325091   -416.42778 
13000000   -436.24336    1738.7652   -2709.2495   -458.49391    1919.0534    6.6088214    12.426887    12.426887    12.426887   -439.48844 
13050000   -440.45109     1523.117    2945.6442   -459.94204    1918.4507    6.6108979    12.425586    12.425586    12.425586   -436.92397 
13100000   -437.23172    1898.4023    5852.5684   -461.52511    1895.0538     6.692518    12.374866    12.374866    12.374866    -430.3093 
13150000   -435.92562    1527.9436     1269.469   -455.47834    1920.8524     6.602632    12.430769    12.430769    12.430769   -434.40365 
13200000   -436.46977    1838.2531   -1430.7811   -459.99345    1908.3733    6.6458075    12.403791    12.403791    12.403791   -438.17399 
13250000   -441.58016    1627.5418    5702.6323   -462.40741    1900.8104    6.6722495    12.387384    12.387384    12.387384    -434.8146 
13300000   -439.28149      1752.27    8444.6605   -461.70486    1881.9731    6.7390346    12.346328    12.346328    12.346328   -429.36209 
13350000   -440.27949    1717.4815    4285.1244   -462.25768      1892.01    6.7032846    12.368237    12.368237    12.368237   -435.21919 
13400000   -437.23473    1823.7185   -6947.7766   -460.57241    1923.7741    6.5926044    12.437068    12.437068    12.437068    -445.5771 
13450000   -435.76597    2031.6557   -11932.305   -461.76456    1940.0024    6.5374566    12.471942    12.471942    12.471942   -450.21425 
13500000   -441.16341    1887.4746    18093.974   -465.31696    1848.6675    6.8604448    12.273062    12.273062    12.273062   -420.28572 
13550000    -439.0396    1647.2374    4306.3812   -460.11889    1895.1275    6.6922575    12.375027    12.375027    12.375027   -433.94581 
13600000   -434.12886     2018.712    1021.5058   -459.96182    1924.2013    6.5911407    12.437989    12.437989    12.437989   -432.90204 
13650000   -439.39449    1803.8018    13350.676    -462.4773    1879.8295     6.746719    12.341638    12.341638    12.341638   -423.73018 
13700000    -441.8785    1638.7105    10886.974   -462.84867    1872.5465    6.7729595    12.325679    12.325679    12.325679   -429.15433 
13750000   -444.80105    1587.3063    11980.368   -465.11342     1864.242    6.8031303    12.307432    12.307432    12.307432   -430.86107 
13800000   -443.73448    1430.3078    5834.7301   -462.03778    1887.4864      6.71935    12.358372    12.358372    12.358372   -436.86072 
13850000   -441.94768     1780.311   -9411.7666   -464.72988    1909.6212    6.6414645    12.406494    12.406494    12.406494   -453.16549 
13900000   -437.85385    1983.1806    1095.6306   -463.23213    1895.3412    6.6915031    12.375492    12.375492    12.375492   -436.55774 
13950000   -434.01212    1908.5315    8007.6852   -458.43513    1908.6662    6.6447876    12.404426    12.404426    12.404426    -424.4726 
14000000   -437.29842    1838.7176    17385.652   -460.82804    1882.1814    6.7382886    12.346783    12.346783    12.346783   -416.87436 
14050000   -438.44278    1864.3164     5221.982   -462.29998     1894.143     6.695736    12.372883    12.372883    12.372883   -432.26919 
14100000   -438.08743    1661.9801   -4304.6383   -459.35538    1920.2934     6.604554    12.429563    12.429563    12.429563   -443.24677 
14150000   -442.66129    1646.2278   -4717.8928   -463.72766    1898.2271      6.68133     12.38177     12.38177     12.38177   -448.25096 
14200000   -438.88269    1797.1483   -6883.2488   -461.88036    1903.0435    6.6644201    12.392233    12.392233    12.392233   -447.05852 
14250000   -440.88944    1671.4882    7490.9631   -462.27906    1888.5458    6.7155806    12.360684    12.360684    12.360684   -432.05956 
14300000   -443.49467     1429.142    2561.6736   -461.78305    1901.0545    6.6713929    12.387914    12.387914    12.387914   -440.45513 
14350000   -442.70653    1863.3592       -11420   -466.55148    1908.3097    6.6460289    12.403653    12.403653    12.403653   -456.30859 
14400000   -437.85583    1620.7244    1388.2026   -458.59584    1932.3976    6.5631844    12.455624    12.455624    12.455624   -436.18151 
14450000   -439.87402    1612.8426    8471.2123   -460.51317    1898.2075    6.6813988    12.381727    12.381727    12.381727    -429.8376 
14500000   -441.78451    1580.5122    7464.6246   -462.00993    1890.3202    6.7092769    12.364554    12.364554    12.364554   -432.97741 
14550000   -434.58683    2056.6045    4085.3071   -460.90469    1904.3223    6.6599449    12.395008    12.395008    12.395008   -429.73109 
14600000   -437.82387    1865.0579   -14262.231   -461.69056    1933.7924    6.5584503     12.45862     12.45862     12.45862   -455.03808 
14650000   -444.67125    1584.0223    23115.406    -464.9416    1851.0764    6.8515171    12.278391    12.278391    12.278391   -417.96484 
14700000   -440.15211    1768.5088   -1002.5711   -462.78328    1901.5735    6.6695719    12.389042    12.389042    12.389042   -441.34203 
14750000   -439.75766    1753.3301   -18598.766   -462.19459    1934.2891    6.5567664    12.459687    12.459687    12.459687   -462.21173 
14800000   -439.53787    1707.5248   -949.09039   -461.38864    1890.5936    6.7083065     12.36515     12.36515     12.36515   -440.65781 
14850000    -439.7344    1858.0232   -7210.6002   -463.51106    1908.3467       6.6459    12.403734    12.403734    12.403734   -448.32292 
14900000   -442.94307     1738.129   -6837.5479   -465.18548    1901.5063    6.6698078    12.388896    12.388896    12.388896   -451.05806 
14950000   -442.17333    1668.8689    6756.7881   -463.52944    1875.0289    6.7639926    12.331124    12.331124    12.331124   -434.26585 
15000000   -440.15145    1912.7176    -3238.141   -464.62803    1881.7578    6.7398056    12.345857    12.345857    12.345857   -443.95465 
15050000   -443.79783    1640.3632    7973.4892   -464.78915    1869.5781    6.7837133    12.319163    12.319163    12.319163   -434.49357 
15100000   -438.63331    1670.9805   -11912.076   -460.01644    1926.0453    6.5848304    12.441961    12.441961    12.441961   -452.95333 
15150000   -442.19473    1909.7559    408.64121    -466.6334    1884.6033    6.7296291    12.352077    12.352077    12.352077   -441.71405 
15200000   -440.01025    1796.9158    13146.141   -463.00494    1883.0841    6.7350584    12.348757    12.348757    12.348757   -424.55921 
15250000    -436.7595     1731.436   -898.30608   -458.91626    1929.3683    6.5734891    12.449112    12.449112    12.449112   -437.84125 
15300000   -435.90697    1771.9926   -10544.511   -458.58272    1959.7962    6.4714286    12.514216    12.514216    12.514216   -448.80511 
15350000    -435.8544    2040.2514   -6078.0936     -461.963    1928.1997     6.577473    12.446598    12.446598    12.446598   -443.16932 
15400000   -443.02613    1666.8661     11522.15   -464.35661    1870.4547    6.7805338    12.321088    12.321088    12.321088   -429.57464 
15450000   -438.47308    1890.7998    15850.956   -462.66918    1878.0218    6.7532131    12.337681    12.337681    12.337681   -419.89308 
15500000    -443.0507    1708.4045   -9909.2135   -464.91273    1909.6216     6.641463    12.406495    12.406495    12.406495   -454.86141 
15550000   -438.54912    1810.8654    -6498.821   -461.72232    1932.6609      6.56229     12.45619     12.45619     12.45619   -446.38847 
15600000   -444.35021    1674.5826   -7228.6353   -465.77943    1907.0105    6.6505567    12.400838    12.400838    12.400838   -452.95418 
15650000   -441.71069      1601.35    15014.061   -462.20277    1886.7393    6.7220105    12.356742    12.356742    12.356742   -424.02998 
15700000   -441.38886    1958.4326    15523.187   -466.45044    1850.9534    6.8519723    12.278119    12.278119    12.278119   -423.45532 
15750000   -440.85075    1793.1151    206.11615   -463.79681    1895.5261    6.6908505    12.375894    12.375894    12.375894    -440.6069 
15800000   -436.34905    1925.4322   -3972.6612   -460.98833    1918.3497    6.6112459    12.425368    12.425368    12.425368   -441.10568 
15850000   -434.87982    1921.1081   -12889.288   -459.46377    1926.6035    6.5829225    12.443163    12.443163    12.443163   -450.37908 
15900000   -436.58816    1953.6873     12460.79   -461.58902    1888.6972    6.7150424    12.361014    12.361014    12.361014   -421.89898 
15950000   -437.04268     1706.482   -278.67669   -458.88011     1908.256    6.6462159    12.403537    12.403537    12.403537   -437.37459 
16000000   -439.23091    1874.7724   -7476.0419   -463.22191    1914.2096    6.6255447    12.416423    12.416423    12.416423   -448.16296 
16050000   -441.39538    1731.1034    5640.8112   -463.54788    1896.4073    6.6877412    12.377812    12.377812    12.377812   -434.71866 
16100000    -440.5939     1626.959   -14748.514   -461.41369    1920.1466    6.6050589    12.429246    12.429246    12.429246   -458.26942 
16150000    -440.3389    1818.1477    11954.142   -463.60529    1862.9568    6.8078237    12.304603    12.304603    12.304603   -426.43902 
16200000   -437.10412     2006.949   -5276.2555   -462.78655    1919.0533     6.608822    12.426887    12.426887    12.426887   -443.42391 
16250000   -438.15291    1566.0279    1706.4673   -458.19298    1920.5362     6.603719    12.430087    12.430087    12.430087   -436.10736 
16300000    -436.9972    1883.0961    6178.1028   -461.09471    1902.5238    6.6662407    12.391105    12.391105    12.391105   -429.66093 
16350000   -446.50824    1610.2279    553.04722   -467.11393     1883.159    6.7347905    12.348921    12.348921    12.348921    -445.8582 
16400000   -442.42934    1623.6937   -12004.513   -463.20735    1938.0386    6.5440809    12.467732    12.467732    12.467732   -456.95034 
16450000    -439.3674    1851.6244     -2850.82   -463.06218    1918.6681    6.6101488    12.426055    12.426055    12.426055   -442.78136 
16500000   -442.04456    1794.0551    6148.3571   -465.00264    1862.6223    6.8090462    12.303866    12.303866    12.303866   -434.89674 
16550000   -441.17203    1989.0963    15221.599     -466.626    1862.1995    6.8105924    12.302935    12.302935    12.302935   -423.48006 
16600000   -439.13802    1754.5314   -4674.0554   -461.59032    1915.0641    6.6225886     12.41827     12.41827     12.41827   -444.72486 
16650000   -442.61203    1755.1209    10439.946   -465.07188    1865.6909    6.7978471    12.310619    12.310619    12.310619   -430.45499 
16700000   -434.96104    2049.2328    974.02128   -461.18457    1915.9662    6.6194705     12.42022     12.42022     12.42022   -433.79626 
[...]
101345000   -490.47591    327.31435    3551.0499   -494.66447    1742.0885    7.2801589    12.032524    12.032524    12.032524   -486.61476 
101350000   -490.85247    302.22385    166.80527   -494.71996     1745.639    7.2653519    12.040693    12.040693    12.040693   -490.67073 
101355000   -490.68889    311.28436   -1323.8896   -494.67231    1746.9175    7.2600345    12.043632    12.043632    12.043632   -492.13238 
101360000   -491.90546    277.35627   -10057.175   -495.45472    1756.7647    7.2193401    12.066219    12.066219    12.066219   -502.93302 
101365000   -491.24862    305.89784   -221.65913   -495.16312    1746.4972    7.2617817    12.042666    12.042666    12.042666   -491.49024 
101370000   -491.14785    299.29825    2139.3151    -494.9779     1741.483    7.2826902     12.03113     12.03113     12.03113   -488.82253 
101375000   -491.01497    302.69677   -3418.3175   -494.88851    1749.2186     7.250484    12.048917    12.048917    12.048917   -494.74701 
101380000   -490.47399    296.55239    11067.808    -494.2689    1730.1214    7.3305155    12.004909    12.004909    12.004909   -478.52234 
101385000   -491.41487    271.42996    1.1479924    -494.8883    1746.1635    7.2631694    12.041899    12.041899    12.041899   -491.41362 
101390000   -491.16431    263.18988    749.35116   -494.53229    1746.2697    7.2627279    12.042143    12.042143    12.042143   -490.34757 
101395000   -490.64921    319.41911    -4590.122   -494.73674    1753.3584    7.2333652    12.058415    12.058415    12.058415   -495.67246 
101400000   -490.67619    306.59983   -8422.1729   -494.59968    1760.2856    7.2048997    12.074275    12.074275    12.074275    -499.9295 
101405000   -491.76642    274.62505   -1139.8419   -495.28073    1749.2049    7.2505407    12.048886    12.048886    12.048886   -493.01087 
101410000   -490.71044    312.65225   -3123.8387   -494.71138    1750.6864    7.2444051    12.052287    12.052287    12.052287   -494.12384 
101415000   -491.03841    314.18879    696.76432   -495.05901    1743.8262    7.2729046    12.036523    12.036523    12.036523   -490.28004 
101420000    -490.5695    315.25036    1889.1398   -494.60369    1745.8341      7.26454    12.041141    12.041141    12.041141   -488.51098 
101425000   -491.44908    315.93672    792.59211   -495.49204    1743.1902    7.2755581     12.03506     12.03506     12.03506   -490.58672 
101430000   -491.39634    272.88517   -4638.3597   -494.88839    1751.9814    7.2390504    12.055258    12.055258    12.055258   -496.46839 
101435000   -490.90882    265.38894   -1758.8976   -494.30494    1750.8107    7.2438907    12.052572    12.052572    12.052572   -492.83089 
101440000   -490.45422    305.17708    1163.6992   -494.35949    1743.7265    7.2733202    12.036294    12.036294    12.036294   -489.18771 
101445000   -490.76095    296.75996   -3432.7047   -494.55851    1750.1158     7.246767    12.050977    12.050977    12.050977   -494.51062 
101450000   -490.53166    305.98283    1468.6508   -494.44725     1743.414    7.2746243    12.035575    12.035575    12.035575   -488.93354 
101455000   -490.49493    317.06509   -1646.5338   -494.55234    1749.8104    7.2480317    12.050276    12.050276    12.050276   -492.29319 
101460000   -490.76649    284.73169    -884.7596   -494.41013    1749.8692    7.2477883    12.050411    12.050411    12.050411   -491.73281 
101465000   -491.29663     310.2586   -4909.9311   -495.26693    1752.7452    7.2358958    12.057009    12.057009    12.057009   -496.66798 
101470000   -491.25404    264.73886    8373.7194   -494.64184    1731.6926    7.3238641    12.008542    12.008542    12.008542   -482.20341 
101475000   -491.46708    266.94098    3217.1344   -494.88306    1742.5379    7.2782814    12.033559    12.033559    12.033559   -487.96811 
101480000   -491.26562    285.39614   -9860.4508   -494.91777     1762.302    7.1966561    12.078883    12.078883    12.078883   -502.11155 
101485000   -490.80319    341.08226    6044.7267   -495.16794    1736.0483    7.3054887    12.018602    12.018602    12.018602   -484.25339 
101490000   -490.83552    328.00508    837.37172   -495.03293    1744.7663    7.2689858    12.038686    12.038686    12.038686   -489.92363 
101495000    -491.2903    302.14777    105.18238   -495.15681    1740.9014    7.2851232     12.02979     12.02979     12.02979   -491.17601 
101500000   -490.79835    290.43294    1456.5497   -494.51495    1742.1047    7.2800914    12.032561    12.032561    12.032561   -489.21459 
101505000   -490.86276    333.19499    3489.0418   -495.12658    1738.6986    7.2943532    12.024714    12.024714    12.024714   -487.07642 
101510000   -491.25734     298.1891    2804.0084   -495.07319    1739.6755    7.2902569    12.026966    12.026966    12.026966   -488.21269 
101515000   -491.20846    277.58902    10566.463    -494.7607    1728.7287    7.3364211    12.001686    12.001686    12.001686   -479.80737 
101520000   -492.39023    237.17553    1286.9304   -495.42531    1739.7891    7.2897809    12.027228    12.027228    12.027228   -490.99277 
101525000    -490.6032    342.98499     3128.734   -494.99229    1741.3012    7.2834508    12.030711    12.030711    12.030711   -487.20278 
101530000   -491.15164    309.89113    5352.7359   -495.11724    1733.7127    7.3153308    12.013209    12.013209    12.013209   -485.35945 
101535000   -491.08379    311.55905    213.58587   -495.07074     1744.231    7.2712168    12.037455    12.037455    12.037455   -490.85127 
101540000   -490.89884     292.8557   -9875.6233   -494.64644    1761.4693    7.2000581     12.07698     12.07698     12.07698   -501.75632 
101545000   -490.20046    332.18559    1416.2063   -494.45136    1741.9969    7.2805419    12.032313    12.032313    12.032313   -488.66067 
101550000   -490.86101    295.26941   -12212.873    -494.6395    1764.3255    7.1884024    12.083504    12.083504    12.083504   -504.30989 
101555000   -491.73252     263.1325    1575.0137   -495.09976    1741.6411    7.2820295    12.031494    12.031494    12.031494    -490.0204 
101560000   -490.70922    302.60135    889.37827   -494.58154    1746.6737     7.261048    12.043071    12.043071    12.043071   -489.73963 
101565000   -491.19915    298.22532     190.5245   -495.01547    1744.8363    7.2686942    12.038847    12.038847    12.038847   -490.99166 
101570000   -491.09476    314.41614   -620.14876   -495.11826    1742.8319    7.2770539    12.034235    12.034235    12.034235   -491.76935 
101575000   -491.33172    287.25138    998.72334    -495.0076    1742.7006    7.2776019    12.033933    12.033933    12.033933    -490.2454 
101580000   -491.09116    304.13474    -1115.433   -494.98309    1746.7696    7.2606495    12.043292    12.043292    12.043292   -492.30726 
101585000   -490.18595     329.1636    2565.1986   -494.39818    1745.3058    7.2667388    12.039927    12.039927    12.039927   -487.39159 
101590000   -491.77784    269.01282   -5463.5011   -495.22033    1753.0731    7.2345424    12.057761    12.057761    12.057761   -497.75591 
101595000   -490.76038    314.63762    1483.4709   -494.78672    1744.6431     7.269499    12.038403    12.038403    12.038403   -489.14499 
101600000   -491.12196    291.73401   -2033.0067   -494.85521    1748.4248    7.2537759    12.047095    12.047095    12.047095   -493.34054 
101605000   -490.96601    300.49418    6056.6238   -494.81136    1739.1435     7.292487     12.02574     12.02574     12.02574   -484.39161 
101610000    -491.4677    273.95473   -6610.1935   -494.97343    1756.0241    7.2223845    12.064523    12.064523    12.064523   -498.71263 
101615000   -490.46036    306.71676    1967.2678   -494.38534    1744.4464    7.2703187     12.03795     12.03795     12.03795    -488.3184 
101620000   -490.60203    348.04993    1464.6244   -495.05594    1743.0339    7.2762105      12.0347      12.0347      12.0347   -489.00864 
101625000   -490.97674    304.85462    12588.593   -494.87789    1727.3159    7.3424214    11.998416    11.998416    11.998416   -477.40491 
101630000   -491.16781    269.76445    2181.0515   -494.61992    1742.5405    7.2782708    12.033565    12.033565    12.033565   -488.79568 
101635000   -490.98695    293.78019    5415.0656   -494.74638    1737.3318    7.3000919    12.021563    12.021563    12.021563   -485.11508 
101640000   -491.42021    287.53687     834.0466   -495.09975    1743.4435     7.274501    12.035643    12.035643    12.035643   -490.51263 
101645000    -491.0181    315.46448   -5467.6377   -495.05502    1753.9607    7.2308813    12.059796    12.059796    12.059796   -497.00372 
101650000   -490.29948    306.49746   -3475.2055   -494.22165     1753.518    7.2327067    12.058781    12.058781    12.058781   -494.10295 
101655000   -491.62339    291.95467   -6625.1943   -495.35946    1753.2984    7.2336129    12.058278    12.058278    12.058278   -498.87349 
101660000   -490.91177    287.43261   -842.80917   -494.58998    1750.0973    7.2468434    12.050935    12.050935    12.050935   -491.83239 
101665000   -491.51233    293.57633    7332.7183   -495.26915    1732.8212    7.3190943     12.01115     12.01115     12.01115   -483.58169 
101670000   -491.13162    290.48415    4434.4104   -494.84888    1735.4432    7.3080361    12.017205    12.017205    12.017205   -486.32836 
101675000   -491.51111    276.93813    1851.1469   -495.05502    1740.6637    7.2861182    12.029243    12.029243    12.029243   -489.49996 
101680000   -492.15833    243.17882    3152.5828   -495.27022    1738.1799      7.29653    12.023518    12.023518    12.023518   -488.73813 
101685000   -490.86016    282.48886    8437.7209   -494.47511    1732.7276    7.3194895    12.010934    12.010934    12.010934   -481.73491 
101690000    -491.0171    293.98225    1669.0707   -494.77912    1743.5909     7.273886    12.035982    12.035982    12.035982   -489.20071 
101695000   -490.68866    303.10275   -166.40905   -494.56739    1745.8466    7.2644879     12.04117     12.04117     12.04117   -490.86999 
101700000   -490.94018    273.77787    9114.1335   -494.44364    1733.9441    7.3143544    12.013744    12.013744    12.013744   -481.07647 
101705000   -490.56402    345.56303   -7297.0138    -494.9861    1757.2558    7.2173224    12.067343    12.067343    12.067343   -498.56733 
101710000    -491.1497    284.08208   -4612.2745   -494.78503    1751.4112    7.2414072     12.05395     12.05395     12.05395   -496.19158 
101715000   -491.05603    294.45272   -2500.9515   -494.82407     1750.326    7.2458968     12.05146     12.05146     12.05146   -493.78824 
101720000   -491.16057    270.65952   -6220.5045   -494.62413     1757.133    7.2178267    12.067062    12.067062    12.067062    -497.9827 
101725000   -490.89815    359.56707    -5662.802   -495.49944    1754.2745    7.2295877    12.060515    12.060515    12.060515   -497.09854 
101730000   -490.75887    305.48324   -2934.2808   -494.66806    1753.4031    7.2331809    12.058518    12.058518    12.058518   -493.97011 
101735000   -491.19026    290.92362    1901.9994   -494.91314    1742.1297    7.2799869    12.032619    12.032619    12.032619   -489.12212 
101740000   -490.58402    286.97851     5730.177   -494.25641    1737.7409    7.2983732    12.022506    12.022506    12.022506   -484.36899 
101745000   -491.29451    283.82396   -5503.9436   -494.92653    1753.6071    7.2323392    12.058985    12.058985    12.058985   -497.31866 
101750000   -491.64904    269.02049   -12227.998   -495.09163    1762.5237    7.1957509     12.07939     12.07939     12.07939   -505.10083 
101755000   -491.08631    306.90563    6308.0801   -495.01371     1737.643    7.2987845     12.02228     12.02228     12.02228   -484.24487 
101760000   -490.96148     350.3522   -5413.3971   -495.44485    1752.5067    7.2368806    12.056462    12.056462    12.056462   -496.88281 
101765000   -490.86816    303.03274     8283.867   -494.74599    1733.2868    7.3171282    12.012225    12.012225    12.012225    -481.9064 
101770000   -490.31959    317.07407   -3082.3318   -494.37711    1753.0402    7.2346783    12.057686    12.057686    12.057686   -493.69216 
101775000   -491.38829    289.73048   -3211.8618    -495.0959    1750.1989    7.2464228    12.051168    12.051168    12.051168   -494.89689 
101780000   -490.31103    314.38734   -974.74941   -494.33416    1750.1783    7.2465083    12.051121    12.051121    12.051121   -491.37582 
101785000   -491.04208    309.32782    320.76885   -495.00047    1746.4948    7.2617918     12.04266     12.04266     12.04266   -490.69242 
101790000   -490.71207    326.32086    3616.4005   -494.88792    1741.4704    7.2827432    12.031101    12.031101    12.031101   -486.78126 
101795000   -490.99273    295.60218   -3045.7199   -494.77548    1749.1001    7.2509751    12.048645    12.048645    12.048645   -494.31775 
101800000    -491.1738     279.9258    3917.8224   -494.75594    1741.4451     7.282849    12.031042    12.031042    12.031042   -486.91542 
101805000   -490.77035    281.95556   -4378.2683   -494.37846    1752.8373    7.2355157     12.05722     12.05722     12.05722   -495.56033 
101810000   -491.26252    298.74245   -2194.3302   -495.08546    1747.8891    7.2559989    12.045864    12.045864    12.045864   -493.65642 
101815000   -491.33258    280.31504   -5658.4635    -494.9197    1753.9507    7.2309226    12.059773    12.059773    12.059773   -497.52707 
101820000    -491.0934    322.35427    1497.3402   -495.21849    1741.7637    7.2815169    12.031776    12.031776    12.031776    -489.4656 
101825000   -491.69025     298.0824     6682.861   -495.50474    1735.3782    7.3083098    12.017055    12.017055    12.017055   -484.45179 
101830000   -490.01094    313.50412    1100.7102   -494.02277    1748.4198    7.2537964    12.047083    12.047083    12.047083   -488.80976 
101835000   -491.06378    305.15029   -1664.3278   -494.96872    1749.6163    7.2488358    12.049831    12.049831    12.049831   -492.88127 
101840000   -490.41086    325.91278   -1451.6059   -494.58149    1747.6901     7.256825    12.045407    12.045407    12.045407   -491.99431 
101845000   -490.70809    333.02065    2961.9885   -494.96968    1740.5003    7.2868022    12.028866    12.028866    12.028866   -487.49038 
101850000   -491.35406    284.90242    679.92254   -494.99989    1743.5323    7.2741304    12.035847    12.035847    12.035847   -490.61415 
101855000   -490.40878    324.23758    872.67225   -494.55797    1743.3622    7.2748402    12.035456    12.035456    12.035456   -489.45921 
101860000    -490.3604    340.26438   -2064.2473   -494.71468    1748.7534     7.252413    12.047849    12.047849    12.047849    -492.6135 
101865000   -491.10906    335.20946   -3863.0454   -495.39866    1750.0314    7.2471164    12.050783    12.050783    12.050783   -495.32861 
101870000    -490.4606     355.3235   -4892.8541   -495.00758    1752.9925     7.234875    12.057576    12.057576    12.057576   -495.81402 
101875000   -491.89149    285.48042   -5660.0777   -495.54472    1752.8146     7.235609    12.057169    12.057169    12.057169   -498.08374 
101880000   -491.23487    268.55675   -1724.8273   -494.67153    1748.7565    7.2523999    12.047856    12.047856    12.047856    -493.1175 
101885000   -491.00534    291.81622    4275.0448   -494.73964    1739.6594    7.2903245    12.026929    12.026929    12.026929   -486.36345 
101890000   -491.07761    287.71388    7376.8745   -494.75941    1734.5828    7.3116609    12.015219    12.015219    12.015219    -483.0911 
101895000   -490.97885    287.12849   -106.72933   -494.65316    1747.1516     7.259062     12.04417     12.04417     12.04417   -491.09524 
101900000   -491.41994    300.69463    2595.9439   -495.26786    1738.9205    7.2934222    12.025226    12.025226    12.025226   -488.60244 
101905000    -490.9049    301.60145    2935.9337   -494.76442    1740.1372    7.2883229     12.02803     12.02803     12.02803   -487.71616 
101910000   -490.80974    312.43363   -1800.7889   -494.80788    1751.5003    7.2410389    12.054154    12.054154    12.054154   -492.77836 
101915000   -490.36158    337.66941   -4183.2016   -494.68265    1752.3862    7.2373782    12.056186    12.056186    12.056186   -494.93697 
101920000   -491.15457    290.22789   -8092.4388   -494.86855    1756.5641    7.2201645     12.06576     12.06576     12.06576   -500.02681 
101925000   -490.85927    324.36506    8001.1921   -495.01009    1732.7745    7.3192916    12.011042    12.011042    12.011042   -482.20587 
101930000   -490.60378    262.07813   -2587.1138   -493.95753    1751.3537     7.241645    12.053818    12.053818    12.053818   -493.43178 
101935000   -490.83758    310.00075   -3605.5122   -494.80458    1750.5082    7.2451426    12.051878    12.051878    12.051878   -494.77689 
101940000   -490.96622    311.94173   -6740.5792   -494.95806    1755.5221    7.2244499    12.063373    12.063373    12.063373   -498.35194 
101945000   -491.26096    291.72756    6055.5581   -494.99412    1735.3529    7.3084164    12.016996    12.016996    12.016996   -484.70205 
101950000   -491.11993    321.00589    6068.6559   -495.22776    1735.8863    7.3061707    12.018228    12.018228    12.018228   -484.54481 
101955000   -491.19008    331.58324   -4398.4567   -495.43327    1751.3587     7.241624    12.053829    12.053829    12.053829   -495.99809 
101960000    -491.5308    276.72544   -5817.4434   -495.07199    1755.5776    7.2242214    12.063501    12.063501    12.063501   -497.90524 
101965000   -490.65796    300.13867    13143.067   -494.49876    1728.5182    7.3373144    12.001199    12.001199    12.001199   -476.47848 
101970000   -491.15727     275.1657   -2480.4593   -494.67849    1752.3361    7.2375849    12.056071    12.056071    12.056071    -493.8702 
101975000   -491.32621    261.92015    5631.5696   -494.67793    1737.4501    7.2995947    12.021835    12.021835    12.021835   -485.21916 
101980000   -491.26444    300.16519    3328.8777   -495.10558    1740.1277    7.2883625    12.028008    12.028008    12.028008   -487.64894 
101985000   -491.35454    294.75431    7702.8934   -495.12644     1732.148    7.3219387    12.009594    12.009594    12.009594   -483.02677 
101990000   -491.65736    283.51359    856.27423   -495.28541    1742.6122    7.2779714     12.03373     12.03373     12.03373   -490.72603 
101995000   -491.23258      301.666   -323.88458   -495.09293    1743.2098    7.2754764    12.035105    12.035105    12.035105   -491.58498 
102000000   -490.63752    319.51984    2376.7819   -494.72634    1740.5591    7.2865561    12.029002    12.029002    12.029002   -488.05545 
102000866   -490.28521    328.80838     1383.571   -494.49289    1742.5778    7.2781148    12.033651    12.033651    12.033651   -488.78039 
Loop time of 311.255 on 96 procs for 1000000 steps with 100 atoms

Performance: 555.171 ns/day, 0.043 hours/ns, 3212.797 timesteps/s
100.0% CPU use with 96 MPI tasks x no OpenMP threads

MPI task timing breakdown:
Section |  min time  |  avg time  |  max time  |%varavg| %total
---------------------------------------------------------------
Pair    | 104.92     | 108.71     | 113.67     |  17.2 | 34.93
Neigh   | 8.6253e-05 | 0.00012527 | 0.0001746  |   0.2 |  0.00
Comm    | 91.059     | 108.78     | 118.38     |  52.8 | 34.95
Output  | 0.50938    | 0.86924    | 2.7579     |  33.7 |  0.28
Modify  | 66.173     | 75.191     | 89.285     |  64.7 | 24.16
Other   |            | 17.71      |            |       |  5.69

Nlocal:    1.04167 ave 3 max 0 min
Histogram: 14 0 0 65 0 0 16 0 0 1
Nghost:    432.719 ave 445 max 413 min
Histogram: 3 1 3 14 8 13 18 15 9 12
Neighs:    76.6979 ave 237 max 0 min
Histogram: 14 8 22 23 12 9 4 2 1 1

Total # of neighbors = 7363
Ave neighs/atom = 73.63
Neighbor list builds = 11
Dangerous builds = 0
write_restart zca-th300.restart
unfix th300
undump zca-th300
Total wall time: 8:39:50
