  COHP#  atomMU  atomNU     distance     translation      ICOHP (at) eF   for spin  1
      1     Cu1     Zr2      3.16238       0   0   0           -0.43396 
      2     Cu1     Cu3      2.47181       0   0   0           -0.42070 
      3     Cu1     Cu7      2.56898       0   0   1           -0.41161 
      4     Cu1     Cu8      2.27812       0   0   0           -0.70737 
      5     Cu1     Zr9      2.46802       0   0   0           -1.83139 
      6     Cu1    Cu10      2.56034       0   0   0           -0.26964 
      7     Cu1    Zr11      2.93717       0   0   0           -0.67339 
      8     Cu1    Cu15      4.08779       0   0   1           -0.01539 
      9     Cu1    Zr26      2.24993       0   0   0           -3.02408 
     10     Cu1    Cu27      4.18931       0   0   0           -0.01977 
     11     Cu1    Cu28      3.92823       0   0   0           -0.00957 
     12     Cu1    Zr32      2.92948       0   0   1           -0.63628 
     13     Cu1    Al34      3.72033       0   0   0           -0.07119 
     14     Cu1    Cu75      3.46830       1   0   0           -0.08209 
     15     Cu1    Zr76      2.77662       1   0   0           -0.89025 
     16     Cu1    Cu78      4.14391       1   0   0           -0.01546 
     17     Cu1    Zr81      3.88563       1   0   1           -0.11230 
     18     Cu1    Zr82      2.23751       1   0   0           -2.97263 
     19     Cu1    Zr83      4.12984       1   0   0           -0.06128 
     20     Zr2     Cu3      2.75789       0   0   0           -0.95182 
     21     Zr2     Cu7      3.07509       0   0   1           -0.48001 
     22     Zr2    Zr16      4.14444       0   1   0           -0.25475 
     23     Zr2    Cu21      3.28854       0   1   0           -0.28100 
     24     Zr2    Cu22      2.41884       0   1   0           -2.37148 
     25     Zr2    Zr23      3.21631       0   1   0           -1.28266 
     26     Zr2    Zr26      3.14048       0   0   0           -1.52137 
     27     Zr2    Cu27      2.50803       0   0   0           -1.70893 
     28     Zr2    Cu28      2.86175       0   0   0           -0.78083 
     29     Zr2    Zr32      3.28170       0   0   1           -0.98479 
     30     Zr2    Cu45      2.78676       0   1   0           -0.92861 
     31     Zr2    Zr46      2.62042       0   1   0           -4.51731 
     32     Zr2    Zr47      3.05112       0   1   0           -1.66193 
     33     Zr2    Zr50      3.34009       0   1   1           -0.91711 
     34     Zr2    Zr51      4.18326       0   0   0           -0.21544 
     35     Zr2    Cu53      4.19064       0   0   0           -0.04835 
     36     Zr2    Cu69      3.84112       0   1   0           -0.10205 
     37     Zr2    Zr76      2.49770       1   0   0           -6.14514 
     38     Zr2    Cu94      3.76693       1   1   0           -0.10884 
     39     Cu3     Cu4      3.24749       0   0   0           -0.04467 
     40     Cu3     Zr9      2.51711       0   0   0           -1.64713 
     41     Cu3    Cu10      2.40301       0   0   0           -0.66310 
     42     Cu3    Cu22      3.99497       0   1   0           -0.01170 
     43     Cu3    Zr23      2.72699       0   1   0           -1.14456 
     44     Cu3    Zr26      2.69467       0   0   0           -1.16641 
     45     Cu3    Cu27      3.54313       0   0   0           -0.01823 
     46     Cu3    Cu28      2.06043       0   0   0           -1.44597 
     47     Cu3    Zr29      2.84764       0   0   0           -0.84394 
     48     Cu3    Cu35      3.52094       0   0   0           -0.03218 
     49     Cu3    Zr48      4.12990       0   1   0           -0.06483 
     50     Cu3    Cu53      3.55473       0   0   0           -0.00034 
     51     Cu3    Zr76      2.69015       1   0   0           -1.03918 
     52     Cu3    Cu78      2.37171       1   0   0           -0.83161 
     53     Cu3    Zr85      3.80937       1   0   0           -0.09519 
     54     Cu4     Zr5      2.61615       0   0   0           -1.29795 
     55     Cu4     Cu6      2.36239       0   0   0           -0.69033 
     56     Cu4    Zr13      3.47784       0   0   0           -0.22990 
     57     Cu4    Zr23      2.62515       0   1   0           -1.28281 
     58     Cu4    Cu24      3.98640       0   1   0           -0.00424 
     59     Cu4    Cu25      2.56748       0   1   0           -0.35833 
     60     Cu4    Cu28      3.54878       0   0   0           -0.05858 
     61     Cu4    Zr29      2.51550       0   0   0           -1.86511 
     62     Cu4    Cu30      3.80729       0   0   0           -0.00985 
     63     Cu4    Zr48      2.99152       0   1   0           -0.56371 
     64     Cu4    Cu78      2.29515       1   0   0           -0.82593 
     65     Cu4    Zr79      2.70772       1   0   0           -1.03060 
     66     Cu4    Cu80      3.74889       1   0   0           -0.03941 
     67     Cu4    Zr85      2.77350       1   0   0           -0.88734 
     68     Cu4    Zr97      2.57328       1   1   0           -1.36759 
     69     Cu4    Cu99      3.94384       1   1   0           -0.02435 
     70     Zr5     Cu6      2.45013       0   0   0           -2.02921 
     71     Zr5     Cu7      2.62260       0   0   0           -1.07256 
     72     Zr5    Zr13      2.88821       0   0   0           -2.54928 
     73     Zr5    Cu21      2.59858       0   1  -1           -1.26838 
     74     Zr5    Cu24      2.76386       0   1   0           -0.95465 
     75     Zr5    Cu25      2.94281       0   1   0           -0.68928 
     76     Zr5    Cu30      4.16754       0   0   0           -0.06559 
     77     Zr5    Zr32      4.01012       0   0   0           -0.36056 
     78     Zr5    Zr50      3.02406       0   1   0           -1.98336 
     79     Zr5    Zr55      3.35603       1   0   0           -0.94205 
     80     Zr5    Cu74      3.73271       1   1   0           -0.12782 
     81     Zr5    Zr79      3.02862       1   0   0           -1.89426 
     82     Zr5    Cu80      2.54887       1   0   0           -1.35368 
     83     Zr5    Zr81      2.69034       1   0   0           -3.73801 
     84     Zr5    Zr85      3.90420       1   0   0           -0.35644 
     85     Zr5    Zr97      3.19740       1   1   0           -1.35043 
     86     Zr5    Cu99      2.52286       1   1   0           -1.69081 
     87     Zr5   Zr100      3.72438       1   1   0           -0.55862 
     88     Cu6     Cu7      3.26336       0   0   0           -0.10610 
     89     Cu6    Zr13      2.64630       0   0   0           -1.14641 
     90     Cu6    Cu21      3.94838       0   1  -1           -0.02217 
     91     Cu6    Zr23      4.19498       0   1   0           -0.05380 
     92     Cu6    Cu24      3.80900       0   1   0           -0.01455 
     93     Cu6    Cu25      2.52553       0   1   0           -0.41776 
     94     Cu6    Zr29      3.00448       0   0   0           -0.57647 
     95     Cu6    Cu30      2.22581       0   0   0           -0.88543 
     96     Cu6    Zr31      2.45730       0   0   0           -1.80479 
     97     Cu6    Zr32      3.07759       0   0   0           -0.38914 
     98     Cu6    Zr48      2.56519       0   1   0           -1.59527 
     99     Cu6    Cu49      3.25309       0   1   0           -0.05696 
    100     Cu6    Zr50      2.77816       0   1   0           -0.91193 
    101     Cu6    Zr54      3.45939       0   0   0           -0.23308 
    102     Cu6    Cu61      3.96313       0   0   0           -0.03767 
    103     Cu6    Cu72      3.87681       0   1   0           -0.02941 
    104     Cu6    Cu80      4.04670       1   0   0           -0.02677 
    105     Cu6    Zr85      4.06577       1   0   0           -0.04651 
    106     Cu6    Zr97      4.05271       1   1   0           -0.05460 
    107     Cu7     Cu8      3.41195       0   0  -1           -0.05166 
    108     Cu7    Zr13      2.82248       0   0   0           -0.80499 
    109     Cu7    Cu21      2.30191       0   1  -1           -0.77797 
    110     Cu7    Zr26      3.95395       0   0  -1           -0.11409 
    111     Cu7    Cu30      4.00743       0   0   0           -0.01825 
    112     Cu7    Zr32      2.17872       0   0   0           -3.81118 
    113     Cu7    Zr46      4.09167       0   1  -1           -0.09391 
    114     Cu7    Zr50      2.80984       0   1   0           -0.77973 
    115     Cu7    Cu75      4.05606       1   0  -1           -0.02489 
    116     Cu7    Zr76      2.78854       1   0  -1           -0.91555 
    117     Cu7    Cu80      3.41523       1   0   0           -0.08085 
    118     Cu7    Zr81      2.40815       1   0   0           -1.97712 
    119     Cu7    Zr82      2.64293       1   0  -1           -1.21808 
    120     Cu7    Cu95      4.09966       1   1  -1           -0.01027 
    121     Cu8    Cu10      3.53683       0   0   0            0.00355 
    122     Cu8    Zr11      2.42925       0   0   0           -1.93728 
    123     Cu8    Zr13      3.34689       0   0   1           -0.36791 
    124     Cu8    Cu15      2.48175       0   0   1           -0.52342 
    125     Cu8    Zr26      2.76966       0   0   0           -0.83697 
    126     Cu8    Cu30      3.98143       0   0   1           -0.01218 
    127     Cu8    Zr32      2.65929       0   0   1           -1.29737 
    128     Cu8    Zr33      2.43508       0   0   0           -1.92796 
    129     Cu8    Al34      3.00228       0   0   0           -0.56503 
    130     Cu8    Zr38      2.74723       0   0   1           -1.06368 
    131     Cu8    Cu39      2.37947       0   0   0           -0.44730 
    132     Cu8    Zr51      3.95746       0   0   0           -0.10842 
    133     Cu8    Cu61      3.75887       0   0   1           -0.04574 
    134     Cu8    Zr82      2.63303       1   0   0           -1.27084 
    135     Cu8    Cu86      3.92645       1   0   1           -0.01003 
    136     Cu8    Zr87      4.08117       1   0   0           -0.05975 
    137     Zr9    Cu10      2.36133       0   0   0           -2.49020 
    138     Zr9    Zr11      3.18334       0   0   0           -1.23855 
    139     Zr9    Zr12      3.17924       0   0   0           -1.33373 
    140     Zr9    Zr26      3.97271       0   0   0           -0.46690 
    141     Zr9    Zr29      3.98634       0   0   0           -0.35811 
    142     Zr9    Cu36      4.17151       0   0   0           -0.05157 
    143     Zr9    Zr52      3.30976       1   0   0           -1.01263 
    144     Zr9    Zr57      3.73425       1   0   0           -0.44404 
    145     Zr9    Cu75      2.79525       1   0   0           -0.84882 
    146     Zr9    Zr76      3.24730       1   0   0           -1.23547 
    147     Zr9    Zr77      2.64180       1   0   0           -4.31867 
    148     Zr9    Cu78      2.70610       1   0   0           -1.19410 
    149     Zr9    Zr82      3.27877       1   0   0           -1.14473 
    150     Zr9    Zr83      2.65678       1   0   0           -4.14256 
    151     Zr9    Cu84      3.31023       1   0   0           -0.27756 
    152     Zr9    Zr85      3.29895       1   0   0           -0.99662 
    153    Cu10    Zr11      2.86094       0   0   0           -0.54780 
    154    Cu10    Zr12      2.77134       0   0   0           -0.95069 
    155    Cu10    Zr26      2.49623       0   0   0           -1.53789 
    156    Cu10    Cu28      3.49577       0   0   0           -0.02591 
    157    Cu10    Zr29      2.87316       0   0   0           -0.88421 
    158    Cu10    Al34      2.45927       0   0   0           -1.55314 
    159    Cu10    Cu35      2.23144       0   0   0           -0.74872 
    160    Cu10    Cu36      2.37337       0   0   0           -0.49000 
    161    Cu10    Zr40      3.83011       0   0   0           -0.02457 
    162    Cu10    Zr41      4.09329       0   0   0           -0.02564 
    163    Cu10    Cu53      3.64212       0   0   0           -0.01065 
    164    Cu10    Zr57      3.93491       0   0   0           -0.02950 
    165    Cu10    Cu78      3.93516       1   0   0           -0.00914 
    166    Cu10    Zr83      3.92099       1   0   0           -0.11772 
    167    Cu10    Zr85      3.67511       1   0   0           -0.19448 
    168    Zr11    Zr12      3.30318       0   0   0           -0.69697 
    169    Zr11    Cu15      2.81348       0   0   1           -0.79398 
    170    Zr11    Zr16      3.28219       0   0   0           -0.89817 
    171    Zr11    Zr26      3.92939       0   0   0           -0.27546 
    172    Zr11    Zr33      4.07127       0   0   0           -0.36484 
    173    Zr11    Al34      2.83933       0   0   0           -2.16725 
    174    Zr11    Cu36      3.84241       0   0   0           -0.03774 
    175    Zr11    Cu39      2.39623       0   0   0           -1.99168 
    176    Zr11    Zr40      2.98776       0   0   0           -1.38597 
    177    Zr11    Cu45      4.13821       0   0   0           -0.04272 
    178    Zr11    Cu56      4.03867       1   0   0           -0.12702 
    179    Zr11    Cu75      3.91707       1   0   0           -0.11000 
    180    Zr11    Zr82      2.85641       1   0   0           -2.67211 
    181    Zr11    Zr83      2.66038       1   0   0           -3.79507 
    182    Zr11    Zr87      2.73499       1   0   0           -3.16312 
    183    Zr11    Al89      2.66128       1   0   0           -2.39011 
    184    Zr12    Zr14      2.98575       0   0   0           -2.19836 
    185    Zr12    Cu17      2.86324       0   0   0           -0.55541 
    186    Zr12    Cu18      2.96752       0   0   0           -0.56574 
    187    Zr12    Zr29      4.08718       0   0   0           -0.24089 
    188    Zr12    Al34      3.88147       0   0   0           -0.43851 
    189    Zr12    Cu35      4.04755       0   0   0           -0.06844 
    190    Zr12    Cu36      2.13838       0   0   0           -4.02932 
    191    Zr12    Zr40      3.03626       0   0   0           -1.47226 
    192    Zr12    Zr41      4.13539       0   0   0           -0.36312 
    193    Zr12    Zr42      3.50614       0   0   0           -0.69354 
    194    Zr12    Cu63      3.87970       1   0   0           -0.09308 
    195    Zr12    Zr83      2.94628       1   0   0           -1.92229 
    196    Zr12    Cu84      2.55300       1   0   0           -1.53085 
    197    Zr12    Zr85      3.23475       1   0   0           -1.21559 
    198    Zr12    Al89      3.00425       1   0   0           -1.49311 
    199    Zr12    Zr90      2.71362       1   0   0           -3.44025 
    200    Zr12    Cu91      2.82724       1   0   0           -0.83235 
    201    Zr13    Zr14      3.07118       0   0   0           -1.61472 
    202    Zr13    Cu15      3.12267       0   0   0           -0.49196 
    203    Zr13    Zr29      3.39253       0   0   0           -0.89401 
    204    Zr13    Cu30      2.36007       0   0   0           -2.53470 
    205    Zr13    Zr32      3.01505       0   0   0           -2.02768 
    206    Zr13    Zr37      4.15061       0   0   0           -0.24765 
    207    Zr13    Zr38      3.10919       0   0   0           -1.62780 
    208    Zr13    Cu61      3.86138       0   0   0           -0.13198 
    209    Zr13    Cu80      2.39239       1   0   0           -2.23573 
    210    Zr13    Zr81      3.87602       1   0   0           -0.36590 
    211    Zr13    Zr82      3.10284       1   0  -1           -1.65896 
    212    Zr13    Zr85      3.04711       1   0   0           -1.83184 
    213    Zr13    Cu86      2.40730       1   0   0           -2.07344 
    214    Zr13    Cu91      4.11343       1   0   0           -0.05280 
    215    Zr14    Cu15      3.29466       0   0   0           -0.33090 
    216    Zr14    Cu18      2.77150       0   0   0           -0.91714 
    217    Zr14    Zr19      3.00073       0   0   0           -1.92961 
    218    Zr14    Cu20      3.08589       0   0   0           -0.49709 
    219    Zr14    Zr29      3.33798       0   0   0           -0.89171 
    220    Zr14    Cu30      3.55887       0   0   0           -0.16718 
    221    Zr14    Cu35      4.10816       0   0   0           -0.04522 
    222    Zr14    Cu36      2.69669       0   0   0           -1.04745 
    223    Zr14    Zr37      2.63021       0   0   0           -4.31972 
    224    Zr14    Zr38      2.69974       0   0   0           -3.79585 
    225    Zr14    Zr41      4.19341       0   0   0           -0.23575 
    226    Zr14    Zr42      3.26431       0   0   0           -1.11698 
    227    Zr14    Cu43      3.40502       0   0   0           -0.24669 
    228    Zr14    Cu84      4.14714       1   0   0           -0.05839 
    229    Zr14    Zr85      2.98288       1   0   0           -2.20979 
    230    Zr14    Cu86      2.77896       1   0   0           -0.99241 
    231    Zr14    Cu91      2.49035       1   0   0           -1.87263 
    232    Cu15    Zr16      2.84709       0   0  -1           -0.73297 
    233    Cu15    Zr19      3.10649       0   0   0           -0.46363 
    234    Cu15    Cu20      2.46177       0   0   0           -0.53726 
    235    Cu15    Zr33      4.00173       0   0  -1           -0.08349 
    236    Cu15    Zr38      2.34680       0   0   0           -2.52692 
    237    Cu15    Cu39      2.71988       0   0  -1           -0.31680 
    238    Cu15    Zr44      3.95537       0   0   0           -0.05788 
    239    Cu15    Zr60      3.87652       1   0   0           -0.06053 
    240    Cu15    Cu80      4.09096       1   0   0           -0.02090 
    241    Cu15    Zr82      2.79093       1   0  -1           -0.87585 
    242    Cu15    Cu86      2.10975       1   0   0           -1.21634 
    243    Cu15    Zr87      2.38816       1   0  -1           -2.19965 
    244    Cu15    Cu91      3.93021       1   0   0           -0.01336 
    245    Cu15    Cu93      3.56632       1   0   0           -0.00399 
    246    Zr16    Zr19      2.98799       0   0   1           -2.11249 
    247    Zr16    Cu20      3.00054       0   0   1           -0.56115 
    248    Zr16    Cu21      2.80051       0   0   0           -0.85681 
    249    Zr16    Cu22      2.89295       0   0   0           -0.63414 
    250    Zr16    Cu24      3.02448       0   0   1           -0.53986 
    251    Zr16    Zr38      4.13705       0   0   1           -0.24069 
    252    Zr16    Cu39      2.74608       0   0   0           -1.03356 
    253    Zr16    Zr40      3.73195       0   0   0           -0.34655 
    254    Zr16    Zr44      3.15196       0   0   1           -1.49880 
    255    Zr16    Cu45      2.38033       0   0   0           -2.32044 
    256    Zr16    Zr50      3.08006       0   0   1           -1.74605 
    257    Zr16    Zr87      2.68226       1   0   0           -3.77510 
    258    Zr16    Zr88      3.90691       1   0   0           -0.31445 
    259    Zr16    Al89      3.02641       1   0   0           -1.52327 
    260    Zr16    Cu94      2.42527       1   0   0           -1.80426 
    261    Zr16    Cu95      4.12166       1   0   0           -0.05267 
    262    Zr16   Zr100      2.94270       1   0   1           -2.27656 
    263    Cu17    Cu18      2.47644       0   0   0           -0.48381 
    264    Cu17    Cu22      2.62036       0   0   0           -0.14439 
    265    Cu17    Zr23      2.50763       0   0   0           -1.73514 
    266    Cu17    Cu25      3.65432       0   0   0           -0.01932 
    267    Cu17    Cu36      3.65353       0   0   0           -0.02240 
    268    Cu17    Zr40      2.46349       0   0   0           -1.53498 
    269    Cu17    Zr42      2.57663       0   0   0           -1.44502 
    270    Cu17    Zr47      3.55670       0   0   0           -0.19962 
    271    Cu17    Cu64      4.12604       1   0   0           -0.02597 
    272    Cu17    Zr88      4.01438       1   0   0           -0.06779 
    273    Cu17    Al89      2.36884       1   0   0           -1.74763 
    274    Cu17    Zr90      2.32142       1   0   0           -2.34102 
    275    Cu17    Cu91      4.16106       1   0   0           -0.01429 
    276    Cu17    Cu92      4.04969       1   0   0           -0.01601 
    277    Cu17    Cu94      3.81190       1   0   0            0.00373 
    278    Cu17    Zr96      2.68242       1   0   0           -0.91008 
    279    Cu17    Zr97      2.80111       1   0   0           -0.98771 
    280    Cu17    Cu98      3.86189       1   0   0           -0.04088 
    281    Cu18    Zr19      2.62263       0   0   0           -1.35695 
    282    Cu18    Cu20      2.52005       0   0   0           -0.44537 
    283    Cu18    Zr23      3.98019       0   0   0           -0.07644 
    284    Cu18    Cu24      2.76080       0   0   0           -0.18729 
    285    Cu18    Cu25      2.92490       0   0   0           -0.13801 
    286    Cu18    Cu36      3.63608       0   0   0           -0.05131 
    287    Cu18    Zr42      2.27338       0   0   0           -2.78063 
    288    Cu18    Cu43      3.93582       0   0   0           -0.03168 
    289    Cu18    Cu49      4.14029       0   0   0           -0.01396 
    290    Cu18    Zr65      3.90308       1   0   0           -0.08673 
    291    Cu18    Cu84      3.98456       1   0   0           -0.00885 
    292    Cu18    Cu86      4.07095       1   0   0           -0.00974 
    293    Cu18    Zr90      2.62807       1   0   0           -1.37004 
    294    Cu18    Cu91      2.42102       1   0   0           -0.63517 
    295    Cu18    Cu92      2.37724       1   0   0           -0.71198 
    296    Cu18    Cu93      3.86671       1   0   0           -0.01933 
    297    Cu18    Zr97      2.65507       1   0   0           -1.24084 
    298    Cu18    Cu98      3.62318       1   0   0           -0.01290 
    299    Zr19    Cu20      2.40112       0   0   0           -2.08926 
    300    Zr19    Cu21      4.17883       0   0  -1           -0.04128 
    301    Zr19    Cu24      2.33104       0   0   0           -2.44367 
    302    Zr19    Cu25      2.81910       0   0   0           -0.91863 
    303    Zr19    Zr37      4.13389       0   0   0           -0.24023 
    304    Zr19    Zr38      2.93214       0   0   0           -2.16734 
    305    Zr19    Cu39      3.89395       0   0  -1           -0.12460 
    306    Zr19    Zr42      2.85303       0   0   0           -2.79115 
    307    Zr19    Cu43      2.50554       0   0   0           -1.60688 
    308    Zr19    Zr44      2.70248       0   0   0           -3.76644 
    309    Zr19    Cu45      4.12403       0   0  -1           -0.08118 
    310    Zr19    Cu49      2.45341       0   0   0           -1.78141 
    311    Zr19    Zr50      3.20177       0   0   0           -1.31728 
    312    Zr19    Cu66      3.90699       0   0   0           -0.07898 
    313    Zr19    Cu71      4.03912       0   0   0           -0.05901 
    314    Zr19    Zr73      4.01074       0   0   0           -0.41638 
    315    Zr19    Cu86      4.05924       1   0   0           -0.04214 
    316    Zr19    Cu91      3.98619       1   0   0           -0.07434 
    317    Zr19    Cu92      3.80895       1   0   0           -0.14036 
    318    Zr19    Zr97      4.16936       1   0   0           -0.23334 
    319    Zr19   Zr100      4.06943       1   0   0           -0.34668 
    320    Cu20    Cu24      2.39910       0   0   0           -0.49242 
    321    Cu20    Cu25      4.09103       0   0   0           -0.01616 
    322    Cu20    Zr38      3.82072       0   0   0           -0.12816 
    323    Cu20    Zr60      4.17664       1   0   0           -0.02749 
    324    Cu20    Zr65      3.85863       1   0   0           -0.06853 
    325    Cu20    Cu67      3.69670       1   0   0           -0.00903 
    326    Cu20    Zr73      3.98335       1   0   0           -0.05331 
    327    Cu20    Cu86      2.48909       1   0   0           -0.47273 
    328    Cu20    Zr87      2.81560       1   0  -1           -0.87329 
    329    Cu20    Cu91      2.49101       1   0   0           -0.52763 
    330    Cu20    Cu92      2.28027       1   0   0           -0.75054 
    331    Cu20    Cu93      2.10164       1   0   0           -1.20424 
    332    Cu20    Zr97      4.14837       1   0   0           -0.02103 
    333    Cu20    Cu99      4.14246       1   0   0           -0.01951 
    334    Cu20   Zr100      2.71708       1   0   0           -1.04693 
    335    Cu21    Cu22      3.24865       0   0   0           -0.07287 
    336    Cu21    Cu24      2.62531       0   0   1           -0.36242 
    337    Cu21    Cu25      4.03397       0   0   1           -0.01229 
    338    Cu21    Zr32      3.97472       0  -1   1           -0.10535 
    339    Cu21    Cu45      3.62585       0   0   0           -0.04784 
    340    Cu21    Zr50      2.17170       0   0   1           -3.64808 
    341    Cu21    Cu68      4.16051       1   0   0           -0.01856 
    342    Cu21    Cu74      3.47253       1   0   1           -0.04811 
    343    Cu21    Zr76      2.84939       1  -1   0           -0.76602 
    344    Cu21    Zr81      2.57615       1  -1   1           -1.41820 
    345    Cu21    Cu94      2.45274       1   0   0           -0.64490 
    346    Cu21    Cu95      2.77064       1   0   0           -0.23903 
    347    Cu21    Cu99      3.48240       1   0   1           -0.04589 
    348    Cu21   Zr100      2.58960       1   0   1           -1.37978 
    349    Cu22    Zr23      2.83222       0   0   0           -0.79975 
    350    Cu22    Zr40      2.69951       0   0   0           -0.82258 
    351    Cu22    Cu45      2.51203       0   0   0           -0.55302 
    352    Cu22    Zr47      3.17688       0   0   0           -0.42155 
    353    Cu22    Zr50      4.09459       0   0   1           -0.03608 
    354    Cu22    Zr76      2.71978       1  -1   0           -1.13507 
    355    Cu22    Zr88      3.64388       1   0   0           -0.04125 
    356    Cu22    Al89      2.31587       1   0   0           -2.07965 
    357    Cu22    Cu94      2.01412       1   0   0           -1.09425 
    358    Cu22    Cu95      3.59362       1   0   0           -0.01952 
    359    Cu22    Zr96      2.76448       1   0   0           -0.78364 
    360    Zr23    Cu25      2.94617       0   0   0           -0.65389 
    361    Zr23    Cu27      4.13183       0  -1   0           -0.05029 
    362    Zr23    Cu28      2.57105       0  -1   0           -1.42871 
    363    Zr23    Zr29      3.89181       0  -1   0           -0.44968 
    364    Zr23    Zr40      3.80052       0   0   0           -0.49923 
    365    Zr23    Zr42      3.29132       0   0   0           -1.04200 
    366    Zr23    Zr47      2.77977       0   0   0           -3.21029 
    367    Zr23    Zr48      2.83556       0   0   0           -2.92766 
    368    Zr23    Zr76      3.54345       1  -1   0           -0.70031 
    369    Zr23    Cu78      2.78748       1  -1   0           -1.05089 
    370    Zr23    Zr96      3.07926       1   0   0           -1.71223 
    371    Zr23    Zr97      2.75146       1   0   0           -3.19655 
    372    Cu24    Cu25      2.23312       0   0   0           -0.92008 
    373    Cu24    Zr42      3.90348       0   0   0           -0.09226 
    374    Cu24    Cu49      3.43416       0   0   0           -0.02183 
    375    Cu24    Zr50      2.69653       0   0   0           -1.04186 
    376    Cu24    Zr73      4.07552       1   0   0           -0.07161 
    377    Cu24    Cu92      2.45405       1   0   0           -0.56218 
    378    Cu24    Cu93      3.92555       1   0   0           -0.01697 
    379    Cu24    Cu94      4.10020       1   0  -1           -0.01177 
    380    Cu24    Zr97      2.74964       1   0   0           -1.06403 
    381    Cu24    Cu98      3.97423       1   0   0           -0.00771 
    382    Cu24    Cu99      2.73746       1   0   0           -0.28395 
    383    Cu24   Zr100      2.34678       1   0   0           -2.41590 
    384    Cu25    Zr31      3.84719       0  -1   0           -0.08123 
    385    Cu25    Zr42      2.72299       0   0   0           -1.06567 
    386    Cu25    Cu43      3.85604       0   0   0           -0.01003 
    387    Cu25    Zr48      2.43868       0   0   0           -2.07434 
    388    Cu25    Cu49      2.34318       0   0   0           -0.79102 
    389    Cu25    Zr50      2.97040       0   0   0           -0.67255 
    390    Cu25    Cu71      3.60984       0   0   0           -0.01631 
    391    Cu25    Cu92      3.84101       1   0   0           -0.01026 
    392    Cu25    Zr97      2.32842       1   0   0           -2.52677 
    393    Cu25    Cu99      3.93376       1   0   0           -0.00607 
    394    Zr26    Cu27      2.57155       0   0   0           -1.49787 
    395    Zr26    Cu28      2.81225       0   0   0           -0.96747 
    396    Zr26    Zr29      4.17119       0   0   0           -0.23129 
    397    Zr26    Zr32      2.97659       0   0   1           -1.91742 
    398    Zr26    Zr33      3.36098       0   0   0           -0.71229 
    399    Zr26    Al34      2.81694       0   0   0           -2.11375 
    400    Zr26    Cu35      2.84406       0   0   0           -0.71221 
    401    Zr26    Zr46      4.09921       0   1   0           -0.29533 
    402    Zr26    Zr51      2.94587       0   0   0           -2.17352 
    403    Zr26    Zr52      4.05925       0   0   0           -0.32756 
    404    Zr26    Cu53      2.52501       0   0   0           -1.56959 
    405    Zr26    Zr57      2.81462       0   0   0           -2.73708 
    406    Cu27    Cu28      2.22358       0   0   0           -0.85455 
    407    Cu27    Zr32      3.81952       0   0   1           -0.13386 
    408    Cu27    Cu35      4.19411       0   0   0           -0.03406 
    409    Cu27    Cu45      4.01969       0   1   0           -0.01311 