
     Program PWSCF v.6.2 (svn rev. 13949:13950) starts on 19Apr2019 at 17:25:16 

     This program is part of the open-source Quantum ESPRESSO suite
     for quantum simulation of materials; please cite
         "P. Giannozzi et al., J. Phys.:Condens. Matter 21 395502 (2009);
         "P. Giannozzi et al., J. Phys.:Condens. Matter 29 465901 (2017);
          URL http://www.quantum-espresso.org", 
     in publications or presentations arising from this work. More details at
     http://www.quantum-espresso.org/quote

     Parallel version (MPI & OpenMP), running on     192 processor cores
     Number of MPI processes:               192
     Threads/MPI process:                     1

     MPI processes distributed on     8 nodes
     K-points division:     npool     =       8
     R & G space division:  proc/nbgrp/npool/nimage =      24
     Waiting for input...
     Reading input from standard input

     Current dimensions of program PWSCF are:
     Max number of different atomic species (ntypx) = 10
     Max number of k-points (npk) =  40000
     Max angular momentum in pseudopotentials (lmaxx) =  3
               file Al.aryjr-1.0.0-ld1.UPF: wavefunction(s)  3S 3P renormalized
               file Cu.aryjr-1.0.0-ld1.UPF: wavefunction(s)  4S 3P 3D renormalized
               file Zr.aryjr-1.0.0-ld1.UPF: wavefunction(s)  4S 4P renormalized

     Subspace diagonalization in iterative solution of the eigenvalue problem:
     one sub-group per band group will be used
     scalapack distributed-memory algorithm (size of sub-group:  3*  3 procs)

 
     Parallelization info
     --------------------
     sticks:   dense  smooth     PW     G-vecs:    dense   smooth      PW
     Min         767     384     98                87619    30986    4052
     Max         768     385     99                87622    30991    4057
     Sum       18431    9221   2373              2102909   743689   97341
 

     Title: 
     Zr49Cu49Al2                                                                


     bravais-lattice index     =            0
     lattice parameter (alat)  =      18.1843  a.u.
     unit-cell volume          =    9395.3366 (a.u.)^3
     number of atoms/cell      =          100
     number of atomic types    =            3
     number of electrons       =      1525.00
     number of Kohn-Sham states=         1086
     kinetic-energy cutoff     =      70.0000  Ry
     charge density cutoff     =     560.0000  Ry
     convergence threshold     =      1.0E-06
     mixing beta               =       0.4000
     number of iterations used =            8  plain     mixing
     Exchange-correlation      =  SLA  PW   PBX  PBC ( 1  4  3  4 0 0)

     celldm(1)=  18.184336  celldm(2)=   0.000000  celldm(3)=   0.000000
     celldm(4)=   0.000000  celldm(5)=   0.000000  celldm(6)=   0.000000

     crystal axes: (cart. coord. in units of alat)
               a(1) = (   1.000000   0.000000   0.000000 )  
               a(2) = (   0.000000   1.250000   0.000000 )  
               a(3) = (   0.000000   0.000000   1.250000 )  

     reciprocal axes: (cart. coord. in units 2 pi/alat)
               b(1) = (  1.000000  0.000000  0.000000 )  
               b(2) = (  0.000000  0.800000  0.000000 )  
               b(3) = (  0.000000  0.000000  0.800000 )  


     PseudoPot. # 1 for Al read from file:
     /scratch/rmnvm/ary.junior/UPFs/Al.aryjr-1.0.0-ld1.UPF
     MD5 check sum: 23518be3108914e66f28d0b5ae5ea896
     Pseudo is Projector augmented-wave + core cor, Zval =  3.0
     Generated using "atomic" code by A. Dal Corso  v.5.3.0 svn rev. 11974
     Shape of augmentation charge: PSQ
     Using radial grid of 1135 points,  4 beta functions with: 
                l(1) =   0
                l(2) =   0
                l(3) =   1
                l(4) =   1
     Q(r) pseudized with 0 coefficients 


     PseudoPot. # 2 for Cu read from file:
     /scratch/rmnvm/ary.junior/UPFs/Cu.aryjr-1.0.0-ld1.UPF
     MD5 check sum: 9308548b6d8348cb0f7fa79efd90ef1e
     Pseudo is Projector augmented-wave + core cor, Zval = 19.0
     Generated using "atomic" code by A. Dal Corso  v.5.3.0 svn rev. 11974
     Shape of augmentation charge: PSQ
     Using radial grid of 1199 points,  6 beta functions with: 
                l(1) =   0
                l(2) =   0
                l(3) =   1
                l(4) =   1
                l(5) =   2
                l(6) =   2
     Q(r) pseudized with 0 coefficients 


     PseudoPot. # 3 for Zr read from file:
     /scratch/rmnvm/ary.junior/UPFs/Zr.aryjr-1.0.0-ld1.UPF
     MD5 check sum: 20f111a850f3481eb9ed9a4dbb9cca44
     Pseudo is Projector augmented-wave + core cor, Zval = 12.0
     Generated using "atomic" code by A. Dal Corso  v.5.3.0 svn rev. 11974
     Shape of augmentation charge: PSQ
     Using radial grid of 1225 points,  6 beta functions with: 
                l(1) =   0
                l(2) =   0
                l(3) =   1
                l(4) =   1
                l(5) =   2
                l(6) =   2
     Q(r) pseudized with 0 coefficients 


     atomic species   valence    mass     pseudopotential
        Al             3.00    26.98150     Al( 1.00)
        Cu            19.00    63.54630     Cu( 1.00)
        Zr            12.00    91.22400     Zr( 1.00)

     No symmetry found


                                    s                        frac. trans.

      isym =  1     identity                                     

 cryst.   s( 1) = (     1          0          0      )
                  (     0          1          0      )
                  (     0          0          1      )

 cart.    s( 1) = (  1.0000000  0.0000000  0.0000000 )
                  (  0.0000000  1.0000000  0.0000000 )
                  (  0.0000000  0.0000000  1.0000000 )


   Cartesian axes

     site n.     atom                  positions (alat units)
         1           Cu  tau(   1) = (   0.1532540   0.2846988   0.1959812  )
         2           Zr  tau(   2) = (   0.2632450  -0.0237587   0.2235038  )
         3           Cu  tau(   3) = (   0.1770600   0.1644525   0.4217187  )
         4           Cu  tau(   4) = (   0.1041000   0.0763912   0.7392338  )
         5           Zr  tau(   5) = (   0.0179050   0.0408987   0.9946250  )
         6           Cu  tau(   6) = (   0.2603280   0.0820425   0.9285262  )
         7           Cu  tau(   7) = (   0.1177750   0.1279638   1.2327950  )
         8           Cu  tau(   8) = (   0.2607600   0.4437288   0.0574187  )
         9           Zr  tau(   9) = (  -0.0132520   0.3397162   0.3831438  )
        10           Cu  tau(  10) = (   0.2185700   0.4107000   0.4210412  )
        11           Zr  tau(  11) = (   0.1152240   0.5874050   0.2054287  )
        12           Zr  tau(  12) = (   0.0615040   0.6190325   0.5429888  )
        13           Zr  tau(  13) = (   0.1385390   0.3154013   1.0081425  )
        14           Zr  tau(  14) = (   0.1772030   0.5757450   0.8276187  )
        15           Cu  tau(  15) = (   0.1140550   0.5993625   1.1632975  )
        16           Zr  tau(  16) = (   0.1178980   0.8746837   0.0215700  )
        17           Cu  tau(  17) = (   0.0775240   0.9155412   0.5239650  )
        18           Cu  tau(  18) = (   0.0595990   0.8314613   0.7665338  )
        19           Zr  tau(  19) = (   0.2258380   0.8421437   0.9822450  )
        20           Cu  tau(  20) = (  -0.0091150   0.7627363   1.0097187  )
        21           Cu  tau(  21) = (   0.0411810   1.1514850  -0.0252738  )
        22           Cu  tau(  22) = (   0.1181520   1.0288162   0.2796900  )
        23           Zr  tau(  23) = (   0.1762560   1.1562663   0.5385488  )
        24           Cu  tau(  24) = (   0.0470770   1.0051625   0.9945363  )
        25           Cu  tau(  25) = (   0.1929970   1.0950488   0.8380663  )
        26           Zr  tau(  26) = (   0.3771530   0.2794975   0.2631463  )
        27           Cu  tau(  27) = (   0.5030380   0.0463275   0.2977887  )
        28           Cu  tau(  28) = (   0.3667550   0.0843825   0.4804762  )
        29           Zr  tau(  29) = (   0.2658580   0.2736225   0.6820463  )
        30           Cu  tau(  30) = (   0.3727640   0.2836875   0.9426825  )
        31           Zr  tau(  31) = (   0.4909010   0.0333188   1.0268762  )
        32           Zr  tau(  32) = (   0.3344380   0.1923237   1.2194450  )
        33           Zr  tau(  33) = (   0.5010310   0.5220900   0.0445225  )
        34           Al  tau(  34) = (   0.3891260   0.5676463   0.3133675  )
        35           Cu  tau(  35) = (   0.4270120   0.4118750   0.5226525  )
        36           Cu  tau(  36) = (   0.2812900   0.5982725   0.5684012  )
        37           Zr  tau(  37) = (   0.4431220   0.5267438   0.7876600  )
        38           Zr  tau(  38) = (   0.3330890   0.5679513   1.0607537  )
        39           Cu  tau(  39) = (   0.3161030   0.6821213   0.0927950  )
        40           Zr  tau(  40) = (   0.2556010   0.8045775   0.3772838  )
        41           Zr  tau(  41) = (   0.4786970   0.7219900   0.5490162  )
        42           Zr  tau(  42) = (   0.2806530   0.8690225   0.6921100  )
        43           Cu  tau(  43) = (   0.4540980   0.7924712   0.8672388  )
        44           Zr  tau(  44) = (   0.4302580   0.8617788   1.1738163  )
        45           Cu  tau(  45) = (   0.3223560   0.9573713   0.1335938  )
        46           Zr  tau(  46) = (   0.4766140   1.1654125   0.0656137  )
        47           Zr  tau(  47) = (   0.4135570   1.0350763   0.4269700  )
        48           Zr  tau(  48) = (   0.3922520   1.2099537   0.7316688  )
        49           Cu  tau(  49) = (   0.3999990   1.0246350   0.9452413  )
        50           Zr  tau(  50) = (   0.2492660   1.1347100   1.1389775  )
        51           Zr  tau(  51) = (   0.5957130   0.2051475   0.0620913  )
        52           Zr  tau(  52) = (   0.7575530   0.0996250   0.2929850  )
        53           Cu  tau(  53) = (   0.5410490   0.2160263   0.4579888  )
        54           Zr  tau(  54) = (   0.5357240   0.2274038   0.7488913  )
        55           Zr  tau(  55) = (   0.6936450   0.1691975   0.9999800  )
        56           Cu  tau(  56) = (   0.6996980   0.6173462   0.1545313  )
        57           Zr  tau(  57) = (   0.6154380   0.4370200   0.3260838  )
        58           Cu  tau(  58) = (   0.6163860   0.4786388   0.6124475  )
        59           Zr  tau(  59) = (   0.7406390   0.4282238   0.8435463  )
        60           Zr  tau(  60) = (   0.7412480   0.4469625   1.1720700  )
        61           Cu  tau(  61) = (   0.5350970   0.3679175   1.0398763  )
        62           Zr  tau(  62) = (   0.5219300   0.8253288   0.2253475  )
        63           Cu  tau(  63) = (   0.6764360   0.6778325   0.4389713  )
        64           Cu  tau(  64) = (   0.6518880   0.9363525   0.4764950  )
        65           Zr  tau(  65) = (   0.6685970   0.7238675   0.7743187  )
        66           Cu  tau(  66) = (   0.5727900   0.6350875   1.0222625  )
        67           Cu  tau(  67) = (   0.6643170   0.7609887   1.2120350  )
        68           Cu  tau(  68) = (   0.6453030   0.9888375   0.0360738  )
        69           Cu  tau(  69) = (   0.6369180   1.1085450   0.3000138  )
        70           Zr  tau(  70) = (   0.6303260   1.2199975   0.5496863  )
        71           Cu  tau(  71) = (   0.5295050   0.9743612   0.7243825  )
        72           Cu  tau(  72) = (   0.6242650   1.2014338   0.8153725  )
        73           Zr  tau(  73) = (   0.6264570   0.9571450   0.9822625  )
        74           Cu  tau(  74) = (   0.6866730   1.1909137   1.1700062  )
        75           Cu  tau(  75) = (   0.7980740   0.3358950   0.1623075  )
        76           Zr  tau(  76) = (   1.0111800   0.0368225   0.2363838  )
        77           Zr  tau(  77) = (   0.7674370   0.2813213   0.5376225  )
        78           Cu  tau(  78) = (   0.9704410   0.1100225   0.5445725  )
        79           Zr  tau(  79) = (   0.8233740   0.0906125   0.7522513  )
        80           Cu  tau(  80) = (   0.8934150   0.2746350   1.0001725  )
        81           Zr  tau(  81) = (   0.8687050   0.1062163   1.2218662  )
        82           Zr  tau(  82) = (   0.9982840   0.3676325   0.0437538  )
        83           Zr  tau(  83) = (   0.8616490   0.5762262   0.3150162  )
        84           Cu  tau(  84) = (   0.8132930   0.5438725   0.5989450  )
        85           Zr  tau(  85) = (   0.9981660   0.3441025   0.7257537  )
        86           Cu  tau(  86) = (   0.9756890   0.5048050   1.0219375  )
        87           Zr  tau(  87) = (   0.9133460   0.6855688   0.0310987  )
        88           Zr  tau(  88) = (   0.7753420   0.8730587   0.2395050  )
        89           Al  tau(  89) = (   1.0048900   0.8185938   0.3096625  )
        90           Zr  tau(  90) = (   0.8636860   0.8171488   0.5767900  )
        91           Cu  tau(  91) = (   0.9239290   0.6226687   0.8025712  )
        92           Cu  tau(  92) = (   0.8484040   0.8972950   0.8765025  )
        93           Cu  tau(  93) = (   0.7838010   0.6950350   1.0249738  )
        94           Cu  tau(  94) = (   0.9491700   1.0015950   0.1592150  )
        95           Cu  tau(  95) = (   0.7960670   1.1376600   0.1251575  )
        96           Zr  tau(  96) = (   0.8820060   1.0911287   0.4309700  )
        97           Zr  tau(  97) = (   0.9756070   1.0919838   0.7318500  )
        98           Cu  tau(  98) = (   0.7438140   1.0300113   0.7152762  )
        99           Cu  tau(  99) = (   0.8036460   1.1460125   0.9517538  )
       100           Zr  tau( 100) = (   0.8574510   0.9720600   1.1442788  )

   Crystallographic axes

     site n.     atom                  positions (cryst. coord.)
         1           Cu  tau(   1) = (  0.1532540  0.2277590  0.1567850  )
         2           Zr  tau(   2) = (  0.2632450 -0.0190070  0.1788030  )
         3           Cu  tau(   3) = (  0.1770600  0.1315620  0.3373750  )
         4           Cu  tau(   4) = (  0.1041000  0.0611130  0.5913870  )
         5           Zr  tau(   5) = (  0.0179050  0.0327190  0.7957000  )
         6           Cu  tau(   6) = (  0.2603280  0.0656340  0.7428210  )
         7           Cu  tau(   7) = (  0.1177750  0.1023710  0.9862360  )
         8           Cu  tau(   8) = (  0.2607600  0.3549830  0.0459350  )
         9           Zr  tau(   9) = ( -0.0132520  0.2717730  0.3065150  )
        10           Cu  tau(  10) = (  0.2185700  0.3285600  0.3368330  )
        11           Zr  tau(  11) = (  0.1152240  0.4699240  0.1643430  )
        12           Zr  tau(  12) = (  0.0615040  0.4952260  0.4343910  )
        13           Zr  tau(  13) = (  0.1385390  0.2523210  0.8065140  )
        14           Zr  tau(  14) = (  0.1772030  0.4605960  0.6620950  )
        15           Cu  tau(  15) = (  0.1140550  0.4794900  0.9306380  )
        16           Zr  tau(  16) = (  0.1178980  0.6997470  0.0172560  )
        17           Cu  tau(  17) = (  0.0775240  0.7324330  0.4191720  )
        18           Cu  tau(  18) = (  0.0595990  0.6651690  0.6132270  )
        19           Zr  tau(  19) = (  0.2258380  0.6737150  0.7857960  )
        20           Cu  tau(  20) = ( -0.0091150  0.6101890  0.8077750  )
        21           Cu  tau(  21) = (  0.0411810  0.9211880 -0.0202190  )
        22           Cu  tau(  22) = (  0.1181520  0.8230530  0.2237520  )
        23           Zr  tau(  23) = (  0.1762560  0.9250130  0.4308390  )
        24           Cu  tau(  24) = (  0.0470770  0.8041300  0.7956290  )
        25           Cu  tau(  25) = (  0.1929970  0.8760390  0.6704530  )
        26           Zr  tau(  26) = (  0.3771530  0.2235980  0.2105170  )
        27           Cu  tau(  27) = (  0.5030380  0.0370620  0.2382310  )
        28           Cu  tau(  28) = (  0.3667550  0.0675060  0.3843810  )
        29           Zr  tau(  29) = (  0.2658580  0.2188980  0.5456370  )
        30           Cu  tau(  30) = (  0.3727640  0.2269500  0.7541460  )
        31           Zr  tau(  31) = (  0.4909010  0.0266550  0.8215010  )
        32           Zr  tau(  32) = (  0.3344380  0.1538590  0.9755560  )
        33           Zr  tau(  33) = (  0.5010310  0.4176720  0.0356180  )
        34           Al  tau(  34) = (  0.3891260  0.4541170  0.2506940  )
        35           Cu  tau(  35) = (  0.4270120  0.3295000  0.4181220  )
        36           Cu  tau(  36) = (  0.2812900  0.4786180  0.4547210  )
        37           Zr  tau(  37) = (  0.4431220  0.4213950  0.6301280  )
        38           Zr  tau(  38) = (  0.3330890  0.4543610  0.8486030  )
        39           Cu  tau(  39) = (  0.3161030  0.5456970  0.0742360  )
        40           Zr  tau(  40) = (  0.2556010  0.6436620  0.3018270  )
        41           Zr  tau(  41) = (  0.4786970  0.5775920  0.4392130  )
        42           Zr  tau(  42) = (  0.2806530  0.6952180  0.5536880  )
        43           Cu  tau(  43) = (  0.4540980  0.6339770  0.6937910  )
        44           Zr  tau(  44) = (  0.4302580  0.6894230  0.9390530  )
        45           Cu  tau(  45) = (  0.3223560  0.7658970  0.1068750  )
        46           Zr  tau(  46) = (  0.4766140  0.9323300  0.0524910  )
        47           Zr  tau(  47) = (  0.4135570  0.8280610  0.3415760  )
        48           Zr  tau(  48) = (  0.3922520  0.9679630  0.5853350  )
        49           Cu  tau(  49) = (  0.3999990  0.8197080  0.7561930  )
        50           Zr  tau(  50) = (  0.2492660  0.9077680  0.9111820  )
        51           Zr  tau(  51) = (  0.5957130  0.1641180  0.0496730  )
        52           Zr  tau(  52) = (  0.7575530  0.0797000  0.2343880  )
        53           Cu  tau(  53) = (  0.5410490  0.1728210  0.3663910  )
        54           Zr  tau(  54) = (  0.5357240  0.1819230  0.5991130  )
        55           Zr  tau(  55) = (  0.6936450  0.1353580  0.7999840  )
        56           Cu  tau(  56) = (  0.6996980  0.4938770  0.1236250  )
        57           Zr  tau(  57) = (  0.6154380  0.3496160  0.2608670  )
        58           Cu  tau(  58) = (  0.6163860  0.3829110  0.4899580  )
        59           Zr  tau(  59) = (  0.7406390  0.3425790  0.6748370  )
        60           Zr  tau(  60) = (  0.7412480  0.3575700  0.9376560  )
        61           Cu  tau(  61) = (  0.5350970  0.2943340  0.8319010  )
        62           Zr  tau(  62) = (  0.5219300  0.6602630  0.1802780  )
        63           Cu  tau(  63) = (  0.6764360  0.5422660  0.3511770  )
        64           Cu  tau(  64) = (  0.6518880  0.7490820  0.3811960  )
        65           Zr  tau(  65) = (  0.6685970  0.5790940  0.6194550  )
        66           Cu  tau(  66) = (  0.5727900  0.5080700  0.8178100  )
        67           Cu  tau(  67) = (  0.6643170  0.6087910  0.9696280  )
        68           Cu  tau(  68) = (  0.6453030  0.7910700  0.0288590  )
        69           Cu  tau(  69) = (  0.6369180  0.8868360  0.2400110  )
        70           Zr  tau(  70) = (  0.6303260  0.9759980  0.4397490  )
        71           Cu  tau(  71) = (  0.5295050  0.7794890  0.5795060  )
        72           Cu  tau(  72) = (  0.6242650  0.9611470  0.6522980  )
        73           Zr  tau(  73) = (  0.6264570  0.7657160  0.7858100  )
        74           Cu  tau(  74) = (  0.6866730  0.9527310  0.9360050  )
        75           Cu  tau(  75) = (  0.7980740  0.2687160  0.1298460  )
        76           Zr  tau(  76) = (  1.0111800  0.0294580  0.1891070  )
        77           Zr  tau(  77) = (  0.7674370  0.2250570  0.4300980  )
        78           Cu  tau(  78) = (  0.9704410  0.0880180  0.4356580  )
        79           Zr  tau(  79) = (  0.8233740  0.0724900  0.6018010  )
        80           Cu  tau(  80) = (  0.8934150  0.2197080  0.8001380  )
        81           Zr  tau(  81) = (  0.8687050  0.0849730  0.9774930  )
        82           Zr  tau(  82) = (  0.9982840  0.2941060  0.0350030  )
        83           Zr  tau(  83) = (  0.8616490  0.4609810  0.2520130  )
        84           Cu  tau(  84) = (  0.8132930  0.4350980  0.4791560  )
        85           Zr  tau(  85) = (  0.9981660  0.2752820  0.5806030  )
        86           Cu  tau(  86) = (  0.9756890  0.4038440  0.8175500  )
        87           Zr  tau(  87) = (  0.9133460  0.5484550  0.0248790  )
        88           Zr  tau(  88) = (  0.7753420  0.6984470  0.1916040  )
        89           Al  tau(  89) = (  1.0048900  0.6548750  0.2477300  )
        90           Zr  tau(  90) = (  0.8636860  0.6537190  0.4614320  )
        91           Cu  tau(  91) = (  0.9239290  0.4981350  0.6420570  )
        92           Cu  tau(  92) = (  0.8484040  0.7178360  0.7012020  )
        93           Cu  tau(  93) = (  0.7838010  0.5560280  0.8199790  )
        94           Cu  tau(  94) = (  0.9491700  0.8012760  0.1273720  )
        95           Cu  tau(  95) = (  0.7960670  0.9101280  0.1001260  )
        96           Zr  tau(  96) = (  0.8820060  0.8729030  0.3447760  )
        97           Zr  tau(  97) = (  0.9756070  0.8735870  0.5854800  )
        98           Cu  tau(  98) = (  0.7438140  0.8240090  0.5722210  )
        99           Cu  tau(  99) = (  0.8036460  0.9168100  0.7614030  )
       100           Zr  tau( 100) = (  0.8574510  0.7776480  0.9154230  )

     number of k points=     8  Fermi-Dirac smearing, width (Ry)=  0.0080
                       cart. coord. in units 2pi/alat
        k(    1) = (   0.2500000   0.2000000   0.2000000), wk =   0.2500000
        k(    2) = (   0.2500000   0.2000000  -0.2000000), wk =   0.2500000
        k(    3) = (   0.2500000  -0.2000000   0.2000000), wk =   0.2500000
        k(    4) = (   0.2500000  -0.2000000  -0.2000000), wk =   0.2500000
        k(    5) = (  -0.2500000   0.2000000   0.2000000), wk =   0.2500000
        k(    6) = (  -0.2500000   0.2000000  -0.2000000), wk =   0.2500000
        k(    7) = (  -0.2500000  -0.2000000   0.2000000), wk =   0.2500000
        k(    8) = (  -0.2500000  -0.2000000  -0.2000000), wk =   0.2500000

                       cryst. coord.
        k(    1) = (   0.2500000   0.2500000   0.2500000), wk =   0.2500000
        k(    2) = (   0.2500000   0.2500000  -0.2500000), wk =   0.2500000
        k(    3) = (   0.2500000  -0.2500000   0.2500000), wk =   0.2500000
        k(    4) = (   0.2500000  -0.2500000  -0.2500000), wk =   0.2500000
        k(    5) = (  -0.2500000   0.2500000   0.2500000), wk =   0.2500000
        k(    6) = (  -0.2500000   0.2500000  -0.2500000), wk =   0.2500000
        k(    7) = (  -0.2500000  -0.2500000   0.2500000), wk =   0.2500000
        k(    8) = (  -0.2500000  -0.2500000  -0.2500000), wk =   0.2500000

     Dense  grid:  2102909 G-vectors     FFT dimensions: ( 144, 180, 180)

     Smooth grid:   743689 G-vectors     FFT dimensions: ( 100, 125, 125)

     Dynamical RAM for                 wfc:      64.15 MB

     Dynamical RAM for     wfc (w. buffer):      64.15 MB

     Dynamical RAM for           str. fact:       4.01 MB

     Dynamical RAM for           local pot:       0.00 MB

     Dynamical RAM for          nlocal pot:     105.14 MB

     Dynamical RAM for                qrad:      16.47 MB

     Dynamical RAM for          rho,v,vnew:       8.76 MB

     Dynamical RAM for               rhoin:       2.92 MB

     Dynamical RAM for            rho*nmix:      21.39 MB

     Dynamical RAM for           G-vectors:       5.25 MB

     Dynamical RAM for          h,s,v(r/c):      95.98 MB

     Dynamical RAM for          <psi|beta>:      29.50 MB

     Dynamical RAM for                 psi:     256.59 MB

     Dynamical RAM for                hpsi:     256.59 MB

     Dynamical RAM for                spsi:     256.59 MB

     Dynamical RAM for      wfcinit/wfcrot:     163.58 MB

     Dynamical RAM for           addusdens:     314.20 MB

     Dynamical RAM for          addusforce:     648.17 MB

     Estimated static dynamical RAM per process >     241.34 MB

     Estimated max dynamical RAM per process >       1.11 GB

     Estimated total dynamical RAM >     213.11 GB

     Initial potential from superposition of free atoms

     starting charge 1524.87645, renormalised to 1525.00000
     Starting wfc are 1135 randomized atomic wfcs
     Checking if some PAW data can be deallocated... 
       PAW data deallocated on  188 nodes for type:  1
       PAW data deallocated on   99 nodes for type:  2
       PAW data deallocated on   97 nodes for type:  3

     total cpu time spent up to now is       31.2 secs

     Self-consistent Calculation

     iteration #  1     ecut=    70.00 Ry     beta= 0.40
     Davidson diagonalization with overlap
     ethr =  1.00E-02,  avg # of iterations =  4.0

     total cpu time spent up to now is      215.7 secs

     total energy              =  -38831.78025425 Ry
     Harris-Foulkes estimate   =  -39000.79437948 Ry
     estimated scf accuracy    <     274.41787908 Ry

     iteration #  2     ecut=    70.00 Ry     beta= 0.40
     Davidson diagonalization with overlap
     ethr =  1.00E-02,  avg # of iterations =  3.0

     total cpu time spent up to now is      413.6 secs

     total energy              =  -38846.64929599 Ry
     Harris-Foulkes estimate   =  -39187.70000745 Ry
     estimated scf accuracy    <    1808.84849909 Ry

     iteration #  3     ecut=    70.00 Ry     beta= 0.40
     Davidson diagonalization with overlap
     ethr =  1.00E-02,  avg # of iterations =  3.0

     total cpu time spent up to now is      566.2 secs

     total energy              =  -38910.94050126 Ry
     Harris-Foulkes estimate   =  -39081.44395490 Ry
     estimated scf accuracy    <    1699.11672874 Ry

     iteration #  4     ecut=    70.00 Ry     beta= 0.40
     Davidson diagonalization with overlap
     ethr =  1.00E-02,  avg # of iterations =  3.0

     total cpu time spent up to now is      686.4 secs

     total energy              =  -38982.95233594 Ry
     Harris-Foulkes estimate   =  -39014.58289059 Ry
     estimated scf accuracy    <     204.70922799 Ry

     iteration #  5     ecut=    70.00 Ry     beta= 0.40
     Davidson diagonalization with overlap
     ethr =  1.00E-02,  avg # of iterations =  2.0

     total cpu time spent up to now is      774.5 secs

     total energy              =  -38987.36689693 Ry
     Harris-Foulkes estimate   =  -38999.04124639 Ry
     estimated scf accuracy    <     114.92133008 Ry

     iteration #  6     ecut=    70.00 Ry     beta= 0.40
     Davidson diagonalization with overlap
     ethr =  7.54E-03,  avg # of iterations =  1.0

     total cpu time spent up to now is      852.0 secs

     total energy              =  -38989.01549993 Ry
     Harris-Foulkes estimate   =  -38992.88534657 Ry
     estimated scf accuracy    <      64.13858800 Ry

     iteration #  7     ecut=    70.00 Ry     beta= 0.40
     Davidson diagonalization with overlap
     ethr =  4.21E-03,  avg # of iterations =  1.0

     total cpu time spent up to now is      929.4 secs

     total energy              =  -38987.72804131 Ry
     Harris-Foulkes estimate   =  -38990.51298317 Ry
     estimated scf accuracy    <      40.81007999 Ry

     iteration #  8     ecut=    70.00 Ry     beta= 0.40
     Davidson diagonalization with overlap
     ethr =  2.68E-03,  avg # of iterations =  1.0

     total cpu time spent up to now is     1007.0 secs

     total energy              =  -38985.57792328 Ry
     Harris-Foulkes estimate   =  -38988.67203577 Ry
     estimated scf accuracy    <      27.55842906 Ry

     iteration #  9     ecut=    70.00 Ry     beta= 0.40
     Davidson diagonalization with overlap
     ethr =  1.81E-03,  avg # of iterations =  1.0

     total cpu time spent up to now is     1085.0 secs

     total energy              =  -38985.06333618 Ry
     Harris-Foulkes estimate   =  -38986.50482570 Ry
     estimated scf accuracy    <      10.85879710 Ry

     iteration # 10     ecut=    70.00 Ry     beta= 0.40
     Davidson diagonalization with overlap
     ethr =  7.12E-04,  avg # of iterations =  1.2

     total cpu time spent up to now is     1170.4 secs

     total energy              =  -38984.40201014 Ry
     Harris-Foulkes estimate   =  -38985.62047162 Ry
     estimated scf accuracy    <       3.75386108 Ry

     iteration # 11     ecut=    70.00 Ry     beta= 0.40
     Davidson diagonalization with overlap
     ethr =  2.46E-04,  avg # of iterations =  4.8

     total cpu time spent up to now is     1330.8 secs

     total energy              =  -38984.17215485 Ry
     Harris-Foulkes estimate   =  -38986.35779721 Ry
     estimated scf accuracy    <      24.37124412 Ry

     iteration # 12     ecut=    70.00 Ry     beta= 0.40
     Davidson diagonalization with overlap
     ethr =  2.46E-04,  avg # of iterations =  4.5

     total cpu time spent up to now is     1457.5 secs

     total energy              =  -38984.94307032 Ry
     Harris-Foulkes estimate   =  -38985.50495147 Ry
     estimated scf accuracy    <       4.85471674 Ry

     iteration # 13     ecut=    70.00 Ry     beta= 0.40
     Davidson diagonalization with overlap
     ethr =  2.46E-04,  avg # of iterations =  3.0

     total cpu time spent up to now is     1557.4 secs

     total energy              =  -38985.06112779 Ry
     Harris-Foulkes estimate   =  -38985.46736619 Ry
     estimated scf accuracy    <       4.55522533 Ry

     iteration # 14     ecut=    70.00 Ry     beta= 0.40
     Davidson diagonalization with overlap
     ethr =  2.46E-04,  avg # of iterations =  1.0

     total cpu time spent up to now is     1634.8 secs

     total energy              =  -38985.21957061 Ry
     Harris-Foulkes estimate   =  -38985.33457407 Ry
     estimated scf accuracy    <       1.08165379 Ry

     iteration # 15     ecut=    70.00 Ry     beta= 0.40
     Davidson diagonalization with overlap
     ethr =  7.09E-05,  avg # of iterations =  2.0

     total cpu time spent up to now is     1722.8 secs

     total energy              =  -38985.26238365 Ry
     Harris-Foulkes estimate   =  -38985.29293822 Ry
     estimated scf accuracy    <       0.30941578 Ry

     iteration # 16     ecut=    70.00 Ry     beta= 0.40
     Davidson diagonalization with overlap
     ethr =  2.03E-05,  avg # of iterations =  2.1

     total cpu time spent up to now is     1819.2 secs

     total energy              =  -38985.27133307 Ry
     Harris-Foulkes estimate   =  -38985.28548121 Ry
     estimated scf accuracy    <       0.13100592 Ry

     iteration # 17     ecut=    70.00 Ry     beta= 0.40
     Davidson diagonalization with overlap
     ethr =  8.59E-06,  avg # of iterations =  5.8

     total cpu time spent up to now is     1968.2 secs

     total energy              =  -38985.25757269 Ry
     Harris-Foulkes estimate   =  -38985.30063496 Ry
     estimated scf accuracy    <       0.70133038 Ry

     iteration # 18     ecut=    70.00 Ry     beta= 0.40
     Davidson diagonalization with overlap
     ethr =  8.59E-06,  avg # of iterations =  4.5

     total cpu time spent up to now is     2093.2 secs

     total energy              =  -38985.27256756 Ry
     Harris-Foulkes estimate   =  -38985.28560978 Ry
     estimated scf accuracy    <       0.18005580 Ry

     iteration # 19     ecut=    70.00 Ry     beta= 0.40
     Davidson diagonalization with overlap
     ethr =  8.59E-06,  avg # of iterations =  1.8

     total cpu time spent up to now is     2181.1 secs

     total energy              =  -38985.27722177 Ry
     Harris-Foulkes estimate   =  -38985.28209031 Ry
     estimated scf accuracy    <       0.05443274 Ry

     iteration # 20     ecut=    70.00 Ry     beta= 0.40
     Davidson diagonalization with overlap
     ethr =  3.57E-06,  avg # of iterations =  2.0

     total cpu time spent up to now is     2269.8 secs

     total energy              =  -38985.27821579 Ry
     Harris-Foulkes estimate   =  -38985.28107262 Ry
     estimated scf accuracy    <       0.02329900 Ry

     iteration # 21     ecut=    70.00 Ry     beta= 0.40
     Davidson diagonalization with overlap
     ethr =  1.53E-06,  avg # of iterations =  1.8

     total cpu time spent up to now is     2357.6 secs

     total energy              =  -38985.27873964 Ry
     Harris-Foulkes estimate   =  -38985.28113352 Ry
     estimated scf accuracy    <       0.02170175 Ry

     iteration # 22     ecut=    70.00 Ry     beta= 0.40
     Davidson diagonalization with overlap
     ethr =  1.42E-06,  avg # of iterations =  1.0

     total cpu time spent up to now is     2435.5 secs

     total energy              =  -38985.27922770 Ry
     Harris-Foulkes estimate   =  -38985.28060325 Ry
     estimated scf accuracy    <       0.01260333 Ry

     iteration # 23     ecut=    70.00 Ry     beta= 0.40
     Davidson diagonalization with overlap
     ethr =  8.26E-07,  avg # of iterations =  1.0

     total cpu time spent up to now is     2512.9 secs

     total energy              =  -38985.27932328 Ry
     Harris-Foulkes estimate   =  -38985.28048347 Ry
     estimated scf accuracy    <       0.01086120 Ry

     iteration # 24     ecut=    70.00 Ry     beta= 0.40
     Davidson diagonalization with overlap
     ethr =  7.12E-07,  avg # of iterations =  1.0

     total cpu time spent up to now is     2590.3 secs

     total energy              =  -38985.27907158 Ry
     Harris-Foulkes estimate   =  -38985.28083677 Ry
     estimated scf accuracy    <       0.02010490 Ry

     iteration # 25     ecut=    70.00 Ry     beta= 0.40
     Davidson diagonalization with overlap
     ethr =  7.12E-07,  avg # of iterations =  1.0

     total cpu time spent up to now is     2667.9 secs

     total energy              =  -38985.27964385 Ry
     Harris-Foulkes estimate   =  -38985.28031728 Ry
     estimated scf accuracy    <       0.00621724 Ry

     iteration # 26     ecut=    70.00 Ry     beta= 0.40
     Davidson diagonalization with overlap
     ethr =  4.08E-07,  avg # of iterations =  1.0

     total cpu time spent up to now is     2745.3 secs

     total energy              =  -38985.27959226 Ry
     Harris-Foulkes estimate   =  -38985.28044853 Ry
     estimated scf accuracy    <       0.01068311 Ry

     iteration # 27     ecut=    70.00 Ry     beta= 0.40
     Davidson diagonalization with overlap
     ethr =  4.08E-07,  avg # of iterations =  1.0

     total cpu time spent up to now is     2822.8 secs

     total energy              =  -38985.27974721 Ry
     Harris-Foulkes estimate   =  -38985.28030315 Ry
     estimated scf accuracy    <       0.00806459 Ry

     iteration # 28     ecut=    70.00 Ry     beta= 0.40
     Davidson diagonalization with overlap
     ethr =  4.08E-07,  avg # of iterations =  1.0

     total cpu time spent up to now is     2900.2 secs

     total energy              =  -38985.27988947 Ry
     Harris-Foulkes estimate   =  -38985.28019035 Ry
     estimated scf accuracy    <       0.00433915 Ry

     iteration # 29     ecut=    70.00 Ry     beta= 0.40
     Davidson diagonalization with overlap
     ethr =  2.85E-07,  avg # of iterations =  1.0

     total cpu time spent up to now is     2978.3 secs

     total energy              =  -38985.27997091 Ry
     Harris-Foulkes estimate   =  -38985.28012830 Ry
     estimated scf accuracy    <       0.00218378 Ry

     iteration # 30     ecut=    70.00 Ry     beta= 0.40
     Davidson diagonalization with overlap
     ethr =  1.43E-07,  avg # of iterations =  1.0

     total cpu time spent up to now is     3056.2 secs

     total energy              =  -38985.28003092 Ry
     Harris-Foulkes estimate   =  -38985.28008492 Ry
     estimated scf accuracy    <       0.00047488 Ry

     iteration # 31     ecut=    70.00 Ry     beta= 0.40
     Davidson diagonalization with overlap
     ethr =  3.11E-08,  avg # of iterations =  1.0

     total cpu time spent up to now is     3133.8 secs

     total energy              =  -38985.28003650 Ry
     Harris-Foulkes estimate   =  -38985.28008714 Ry
     estimated scf accuracy    <       0.00052100 Ry

     iteration # 32     ecut=    70.00 Ry     beta= 0.40
     Davidson diagonalization with overlap
     ethr =  3.11E-08,  avg # of iterations =  1.0

     total cpu time spent up to now is     3211.3 secs

     total energy              =  -38985.28005205 Ry
     Harris-Foulkes estimate   =  -38985.28007669 Ry
     estimated scf accuracy    <       0.00021504 Ry

     iteration # 33     ecut=    70.00 Ry     beta= 0.40
     Davidson diagonalization with overlap
     ethr =  1.41E-08,  avg # of iterations =  1.0

     total cpu time spent up to now is     3288.9 secs

     total energy              =  -38985.28005644 Ry
     Harris-Foulkes estimate   =  -38985.28007506 Ry
     estimated scf accuracy    <       0.00016867 Ry

     iteration # 34     ecut=    70.00 Ry     beta= 0.40
     Davidson diagonalization with overlap
     ethr =  1.11E-08,  avg # of iterations =  1.0

     total cpu time spent up to now is     3366.4 secs

     total energy              =  -38985.28005058 Ry
     Harris-Foulkes estimate   =  -38985.28007962 Ry
     estimated scf accuracy    <       0.00031642 Ry

     iteration # 35     ecut=    70.00 Ry     beta= 0.40
     Davidson diagonalization with overlap
     ethr =  1.11E-08,  avg # of iterations =  1.0

     total cpu time spent up to now is     3444.0 secs

     total energy              =  -38985.28005118 Ry
     Harris-Foulkes estimate   =  -38985.28008346 Ry
     estimated scf accuracy    <       0.00036192 Ry

     iteration # 36     ecut=    70.00 Ry     beta= 0.40
     Davidson diagonalization with overlap
     ethr =  1.11E-08,  avg # of iterations =  1.0

     total cpu time spent up to now is     3521.9 secs

     total energy              =  -38985.28005765 Ry
     Harris-Foulkes estimate   =  -38985.28007848 Ry
     estimated scf accuracy    <       0.00026069 Ry

     iteration # 37     ecut=    70.00 Ry     beta= 0.40
     Davidson diagonalization with overlap
     ethr =  1.11E-08,  avg # of iterations =  1.0

     total cpu time spent up to now is     3599.9 secs

     total energy              =  -38985.28006122 Ry
     Harris-Foulkes estimate   =  -38985.28007486 Ry
     estimated scf accuracy    <       0.00017987 Ry

     iteration # 38     ecut=    70.00 Ry     beta= 0.40
     Davidson diagonalization with overlap
     ethr =  1.11E-08,  avg # of iterations =  1.0

     total cpu time spent up to now is     3677.4 secs

     total energy              =  -38985.28006045 Ry
     Harris-Foulkes estimate   =  -38985.28007649 Ry
     estimated scf accuracy    <       0.00024936 Ry

     iteration # 39     ecut=    70.00 Ry     beta= 0.40
     Davidson diagonalization with overlap
     ethr =  1.11E-08,  avg # of iterations =  1.0

     total cpu time spent up to now is     3755.0 secs

     total energy              =  -38985.28006421 Ry
     Harris-Foulkes estimate   =  -38985.28007350 Ry
     estimated scf accuracy    <       0.00013807 Ry

     iteration # 40     ecut=    70.00 Ry     beta= 0.40
     Davidson diagonalization with overlap
     ethr =  9.05E-09,  avg # of iterations =  1.0

     total cpu time spent up to now is     3832.3 secs

     total energy              =  -38985.28006730 Ry
     Harris-Foulkes estimate   =  -38985.28007139 Ry
     estimated scf accuracy    <       0.00004680 Ry

     iteration # 41     ecut=    70.00 Ry     beta= 0.40
     Davidson diagonalization with overlap
     ethr =  3.07E-09,  avg # of iterations =  1.0

     total cpu time spent up to now is     3910.2 secs

     total energy              =  -38985.28006816 Ry
     Harris-Foulkes estimate   =  -38985.28007110 Ry
     estimated scf accuracy    <       0.00003715 Ry

     iteration # 42     ecut=    70.00 Ry     beta= 0.40
     Davidson diagonalization with overlap
     ethr =  2.44E-09,  avg # of iterations =  1.0

     total cpu time spent up to now is     3987.6 secs

     total energy              =  -38985.28006941 Ry
     Harris-Foulkes estimate   =  -38985.28007022 Ry
     estimated scf accuracy    <       0.00000773 Ry

     iteration # 43     ecut=    70.00 Ry     beta= 0.40
     Davidson diagonalization with overlap
     ethr =  5.07E-10,  avg # of iterations =  1.0

     total cpu time spent up to now is     4065.2 secs

     total energy              =  -38985.28006966 Ry
     Harris-Foulkes estimate   =  -38985.28007025 Ry
     estimated scf accuracy    <       0.00000579 Ry

     iteration # 44     ecut=    70.00 Ry     beta= 0.40
     Davidson diagonalization with overlap
     ethr =  3.80E-10,  avg # of iterations =  1.0

     total cpu time spent up to now is     4142.8 secs

     total energy              =  -38985.28006969 Ry
     Harris-Foulkes estimate   =  -38985.28007040 Ry
     estimated scf accuracy    <       0.00000858 Ry

     iteration # 45     ecut=    70.00 Ry     beta= 0.40
     Davidson diagonalization with overlap
     ethr =  3.80E-10,  avg # of iterations =  1.0

     total cpu time spent up to now is     4220.8 secs

     total energy              =  -38985.28006972 Ry
     Harris-Foulkes estimate   =  -38985.28007050 Ry
     estimated scf accuracy    <       0.00000921 Ry

     iteration # 46     ecut=    70.00 Ry     beta= 0.40
     Davidson diagonalization with overlap
     ethr =  3.80E-10,  avg # of iterations =  1.0

     total cpu time spent up to now is     4298.3 secs

     total energy              =  -38985.28006982 Ry
     Harris-Foulkes estimate   =  -38985.28007044 Ry
     estimated scf accuracy    <       0.00000746 Ry

     iteration # 47     ecut=    70.00 Ry     beta= 0.40
     Davidson diagonalization with overlap
     ethr =  3.80E-10,  avg # of iterations =  1.0

     total cpu time spent up to now is     4376.1 secs

     total energy              =  -38985.28006990 Ry
     Harris-Foulkes estimate   =  -38985.28007042 Ry
     estimated scf accuracy    <       0.00000765 Ry

     iteration # 48     ecut=    70.00 Ry     beta= 0.40
     Davidson diagonalization with overlap
     ethr =  3.80E-10,  avg # of iterations =  1.0

     total cpu time spent up to now is     4453.6 secs

     total energy              =  -38985.28006977 Ry
     Harris-Foulkes estimate   =  -38985.28007056 Ry
     estimated scf accuracy    <       0.00001196 Ry

     iteration # 49     ecut=    70.00 Ry     beta= 0.40
     Davidson diagonalization with overlap
     ethr =  3.80E-10,  avg # of iterations =  1.0

     total cpu time spent up to now is     4531.0 secs

     total energy              =  -38985.28006987 Ry
     Harris-Foulkes estimate   =  -38985.28007053 Ry
     estimated scf accuracy    <       0.00001032 Ry

     iteration # 50     ecut=    70.00 Ry     beta= 0.40
     Davidson diagonalization with overlap
     ethr =  3.80E-10,  avg # of iterations =  1.0

     total cpu time spent up to now is     4608.7 secs

     total energy              =  -38985.28007010 Ry
     Harris-Foulkes estimate   =  -38985.28007037 Ry
     estimated scf accuracy    <       0.00000316 Ry

     iteration # 51     ecut=    70.00 Ry     beta= 0.40
     Davidson diagonalization with overlap
     ethr =  2.07E-10,  avg # of iterations =  1.0

     total cpu time spent up to now is     4686.5 secs

     total energy              =  -38985.28007017 Ry
     Harris-Foulkes estimate   =  -38985.28007033 Ry
     estimated scf accuracy    <       0.00000195 Ry

     iteration # 52     ecut=    70.00 Ry     beta= 0.40
     Davidson diagonalization with overlap
     ethr =  1.28E-10,  avg # of iterations =  1.0

     total cpu time spent up to now is     4764.0 secs

     End of self-consistent calculation

          k = 0.2500 0.2000 0.2000 ( 92913 PWs)   bands (ev):

   -95.3304 -95.1339 -95.1152 -95.1057 -95.0713 -95.0214 -94.9526 -94.9514
   -94.9323 -94.9289 -94.8208 -94.7779 -94.7653 -94.7413 -94.7379 -94.7132
   -94.7127 -94.7025 -94.6833 -94.6677 -94.6569 -94.6530 -94.6419 -94.6328
   -94.6161 -94.6159 -94.5912 -94.5801 -94.5665 -94.5452 -94.5212 -94.5108
   -94.5087 -94.4928 -94.4739 -94.4639 -94.4408 -94.4348 -94.4125 -94.4046
   -94.4041 -94.3895 -94.3784 -94.3751 -94.3271 -94.3258 -94.2626 -94.2324
   -94.2265 -53.0063 -52.7299 -52.6990 -52.6397 -52.6222 -52.5828 -52.5347
   -52.5078 -52.5010 -52.4729 -52.4274 -52.4172 -52.4072 -52.4001 -52.4000
   -52.3919 -52.3860 -52.3722 -52.3251 -52.3071 -52.3059 -52.2855 -52.2818
   -52.2768 -52.2752 -52.2417 -52.2393 -52.2310 -52.2263 -52.2217 -52.2162
   -52.2098 -52.2085 -52.2077 -52.2047 -52.1850 -52.1719 -52.1613 -52.1543
   -52.1501 -52.1385 -52.1307 -52.1297 -52.1214 -52.1079 -52.1014 -52.0815
   -52.0728 -52.0708 -52.0635 -52.0617 -52.0586 -52.0542 -52.0511 -52.0449
   -52.0410 -52.0397 -52.0367 -52.0319 -52.0229 -52.0089 -52.0076 -51.9996
   -51.9991 -51.9982 -51.9910 -51.9838 -51.9823 -51.9800 -51.9771 -51.9759
   -51.9700 -51.9689 -51.9633 -51.9572 -51.9552 -51.9523 -51.9493 -51.9407
   -51.9205 -51.9159 -51.9134 -51.9104 -51.9099 -51.8991 -51.8973 -51.8972
   -51.8881 -51.8818 -51.8786 -51.8628 -51.8564 -51.8550 -51.8506 -51.8434
   -51.8367 -51.8357 -51.8328 -51.8282 -51.8279 -51.8268 -51.8238 -51.8182
   -51.8123 -51.8094 -51.8080 -51.7989 -51.7970 -51.7933 -51.7872 -51.7868
   -51.7819 -51.7770 -51.7725 -51.7683 -51.7589 -51.7427 -51.7400 -51.7352
   -51.7302 -51.7212 -51.7199 -51.7108 -51.7049 -51.7015 -51.6992 -51.6967
   -51.6926 -51.6803 -51.6791 -51.6755 -51.6740 -51.6655 -51.6484 -51.6459
   -51.6439 -51.6411 -51.6088 -51.6054 -51.5931 -51.5666 -51.5634 -51.5569
   -51.5551 -51.5289 -51.4970 -51.4961 -29.3501 -29.2663 -29.2606 -29.2271
   -29.2245 -29.1996 -29.1903 -29.1816 -29.1752 -29.1613 -29.1583 -29.1328
   -29.1270 -29.1151 -29.1022 -29.0927 -29.0811 -29.0728 -29.0679 -29.0541
   -29.0469 -29.0429 -29.0285 -29.0023 -28.9896 -28.9800 -28.9690 -28.9651
   -28.9556 -28.9404 -28.9380 -28.9244 -28.9144 -28.9085 -28.9031 -28.8923
   -28.8841 -28.8754 -28.8617 -28.8318 -28.8164 -28.7925 -28.7900 -28.7744
   -28.7119 -28.6947 -28.6322 -28.5703 -28.5475  -8.7544  -8.5651  -8.4992
    -8.1861  -8.1750  -8.1296  -8.0986  -8.0805  -8.0475  -8.0369  -8.0250
    -7.9959  -7.9675  -7.9581  -7.9296  -7.9176  -7.9125  -7.8971  -7.8921
    -7.8675  -7.8533  -7.8267  -7.8231  -7.8129  -7.7967  -7.7868  -7.7725
    -7.7617  -7.7473  -7.7369  -7.7208  -7.6940  -7.6807  -7.6744  -7.6526
    -7.6488  -7.6353  -7.6177  -7.6081  -7.5973  -7.5785  -7.5744  -7.5625
    -7.5463  -7.5365  -7.5197  -7.5018  -7.4932  -7.4712  -7.4650  -7.4535
    -7.4414  -7.4220  -7.4173  -7.4093  -7.3935  -7.3796  -7.3751  -7.3635
    -7.3517  -7.3430  -7.3317  -7.3235  -7.3052  -7.3014  -7.2916  -7.2774
    -7.2642  -7.2531  -7.2417  -7.2325  -7.2226  -7.2091  -7.2008  -7.1895
    -7.1796  -7.1679  -7.1540  -7.1493  -7.1333  -7.1272  -7.1161  -7.1120
    -7.0982  -7.0868  -7.0826  -7.0652  -7.0518  -7.0460  -7.0314  -7.0295
    -7.0180  -7.0073  -7.0040  -6.9930  -6.9790  -6.9743  -6.9615  -6.9522
    -6.9410  -6.9318  -6.9171  -6.9093  -6.9016  -6.8835  -6.8784  -6.8748
    -6.8700  -6.8565  -6.8532  -6.8468  -6.8384  -6.8210  -6.8203  -6.8042
    -6.7996  -6.7850  -6.7757  -6.7675  -6.7499  -6.7400  -6.7244  -6.7218
    -6.7118  -6.6937  -6.6884  -6.6722  -6.6508  -6.6375  -6.6273  -6.6103
    -6.5922  -6.5815  -6.5725  -6.5560  -6.5389  -6.5277  -6.4789  -6.4671
    -6.4441  -6.4179  -6.4029  -6.3596  -6.3460  -6.2639  -6.0109  -5.9914
    10.7652  11.1267  11.3630  11.6871  11.9369  12.0173  12.2584  12.3816
    12.4474  12.5187  12.7557  12.7786  12.8224  12.9515  12.9951  13.0528
    13.0718  13.1318  13.1728  13.2209  13.2651  13.3104  13.3638  13.3774
    13.4078  13.4237  13.4542  13.4806  13.5073  13.5494  13.5626  13.5794
    13.5989  13.6370  13.6449  13.6642  13.6711  13.7134  13.7223  13.7339
    13.7488  13.7633  13.7679  13.7888  13.8001  13.8163  13.8344  13.8390
    13.8516  13.8608  13.8771  13.8935  13.9139  13.9201  13.9282  13.9390
    13.9452  13.9481  13.9655  13.9713  13.9832  13.9989  14.0097  14.0248
    14.0433  14.0492  14.0649  14.0754  14.0814  14.0888  14.0938  14.1006
    14.1111  14.1176  14.1270  14.1441  14.1567  14.1645  14.1729  14.1870
    14.2023  14.2081  14.2179  14.2257  14.2329  14.2419  14.2520  14.2603
    14.2652  14.2753  14.2892  14.2973  14.3041  14.3074  14.3268  14.3289
    14.3393  14.3526  14.3600  14.3689  14.3739  14.3821  14.4006  14.4060
    14.4112  14.4202  14.4325  14.4439  14.4527  14.4684  14.4793  14.4919
    14.5005  14.5114  14.5177  14.5344  14.5418  14.5515  14.5576  14.5672
    14.5736  14.5826  14.5956  14.6068  14.6111  14.6197  14.6324  14.6470
    14.6507  14.6643  14.6665  14.6824  14.6853  14.6926  14.6984  14.7146
    14.7251  14.7275  14.7350  14.7504  14.7590  14.7642  14.7764  14.7912
    14.7985  14.8067  14.8208  14.8255  14.8375  14.8434  14.8564  14.8677
    14.8772  14.8819  14.8901  14.8975  14.9101  14.9135  14.9237  14.9337
    14.9444  14.9533  14.9602  14.9681  14.9923  15.0042  15.0123  15.0245
    15.0328  15.0460  15.0513  15.0634  15.0690  15.0797  15.0874  15.0955
    15.1132  15.1231  15.1306  15.1377  15.1503  15.1670  15.1696  15.1815
    15.1861  15.1937  15.2041  15.2113  15.2232  15.2262  15.2482  15.2530
    15.2641  15.2766  15.2825  15.2936  15.2991  15.3218  15.3278  15.3314
    15.3433  15.3482  15.3604  15.3776  15.3884  15.3945  15.4121  15.4207
    15.4302  15.4418  15.4536  15.4701  15.4811  15.4909  15.5081  15.5186
    15.5278  15.5354  15.5530  15.5681  15.5795  15.5866  15.6049  15.6173
    15.6335  15.6400  15.6511  15.6587  15.6624  15.6820  15.6900  15.7058
    15.7177  15.7281  15.7490  15.7594  15.7716  15.7845  15.8112  15.8199
    15.8303  15.8352  15.8456  15.8586  15.8872  15.8915  15.9119  15.9248
    15.9337  15.9500  15.9624  15.9679  15.9768  15.9964  16.0088  16.0257
    16.0362  16.0557  16.0738  16.0927  16.1217  16.1412  16.1577  16.1807
    16.1977  16.2202  16.2308  16.2493  16.2619  16.2875  16.3021  16.3255
    16.3418  16.3677  16.3913  16.4228  16.4424  16.4683  16.4926  16.5138
    16.5360  16.5664  16.5999  16.6223  16.6590  16.6810  16.7088  16.7636
    16.8022  16.8300  16.8686  16.9052  16.9496  16.9645  17.0332  17.0709
    17.1014  17.1065  17.1611  17.1930  17.2146  17.2682  17.2865  17.3281
    17.3546  17.3949  17.4249  17.4565  17.4852  17.5434  17.5593  17.5756
    17.5988  17.6199  17.6663  17.7097  17.7296  17.7584  17.7958  17.8224
    17.8659  17.8999  17.9254  17.9345  17.9778  17.9921  18.0417  18.0512
    18.0970  18.1263  18.1477  18.2054  18.2281  18.2434  18.2692  18.2745
    18.3033  18.3289  18.3510  18.3827  18.4164  18.4481  18.4596  18.4847
    18.4986  18.5346  18.5667  18.5815  18.6034  18.6255  18.6591  18.6959
    18.7265  18.7754  18.7988  18.8052  18.8482  18.8633  18.8916  18.9149
    18.9646  18.9856  19.0162  19.0350  19.0563  19.0765  19.1016  19.1129
    19.1572  19.1644  19.2076  19.2196  19.2567  19.2778  19.2934  19.3153
    19.3468  19.3627  19.3977  19.4538  19.4670  19.4872  19.4999  19.5255
    19.5522  19.5665  19.6184  19.6424  19.6745  19.7114  19.7359  19.7729
    19.7946  19.8030  19.8410  19.8570  19.8969  19.9281  19.9581  19.9914
    20.0016  20.0480  20.0711  20.1030  20.1153  20.1524  20.1856  20.2189
    20.2541  20.2741  20.3239  20.3487  20.3706  20.4163  20.4391  20.4548
    20.4712  20.5301  20.5572  20.5793  20.6080  20.6586  20.7067  20.7189
    20.7694  20.8181  20.8698  20.8955  20.9291  20.9752  20.9925  21.0303
    21.0856  21.1211  21.1536  21.1827  21.2032  21.2419  21.3031  21.3273
    21.3568  21.4080  21.4238  21.4573  21.5109  21.5530  21.5597  21.6008
    21.6602  21.7174  21.7562  21.7700  21.8177  21.8365  21.8969  21.9033
    21.9316  21.9680  22.0135  22.0297  22.0594  22.1118  22.1577  22.1805
    22.2269  22.2542  22.2863  22.3333  22.3549  22.3733  22.3976  22.4653
    22.5140  22.5270  22.5715  22.6089  22.6370  22.6569  22.6875  22.7222
    22.7601  22.7745  22.8083  22.8483  22.8763  22.9180  22.9484  22.9822
    23.0136  23.0532  23.0910  23.1353  23.1780  23.2050  23.2384  23.2580
    23.2949  23.3238  23.3434  23.3745  23.3952  23.4127  23.4405  23.4810
    23.5207  23.5359  23.5882  23.6321  23.6565  23.6896  23.7344  23.7642
    23.8162  23.8236  23.8427  23.8760  23.9282  23.9437  24.0053  24.0280
    24.0513  24.1148  24.1431  24.1763  24.2163  24.2696  24.3107  24.3223
    24.3490  24.3957  24.4693  24.4777  24.5172  24.5473  24.5960  24.6409
    24.6863  24.7264  24.7693  24.8098  24.8290  24.8738  24.9453  24.9790
    25.0067  25.0739  25.1124  25.1479  25.2053  25.2481  25.3091  25.3694
    25.3931  25.4376  25.5291  25.5629  25.6242  25.7085  25.7390  25.8300
    25.8938  25.9718  26.0445  26.1029  26.1777  26.1941  26.2359  26.2930
    26.3658  26.4054  26.4884  26.5355  26.5802  26.6376  26.7262  26.7828
    26.8442  26.8634  26.9554  27.0103  27.1047  27.1706  27.2198  27.2606
    27.3322  27.4444  27.4708  27.5433  27.5784  27.6674  27.7057  27.7542
    27.7985  27.8326  27.8741  27.9402  27.9774  28.0274  28.0952  28.1145
    28.1457  28.2093  28.2894  28.3513  28.3713  28.4483  28.4607  28.5071
    28.5571  28.6288  28.6549  28.7018  28.7609  28.8236  28.8348  28.9013
    28.9328  28.9722  29.0474  29.0873  29.1288  29.1734  29.2038  29.2585
    29.2750  29.3419  29.3866  29.4417  29.4955  29.5447  29.5887  29.6281
    29.6580  29.7194  29.7330  29.7588  29.8101  29.8812  29.8966  29.9302
    30.0101  30.0869  30.1410  30.1777  30.1970  30.2443  30.2830  30.3165
    30.3349  30.3870  30.4516  30.4946  30.5257  30.5570  30.5927  30.6099
    30.6620  30.6861  30.7224  30.7659  30.8221  30.8559  30.8663  30.9276
    30.9668  31.0019  31.0617  31.0841  31.1231  31.1528  31.2093  31.2534
    31.2807  31.3183  31.3922  31.4290  31.4861  31.5410  31.5756  31.6163
    31.6329  31.6566  31.7170  31.7649  31.8121  31.8556  31.9046  31.9142
    31.9604  32.0092  32.0465  32.0732  32.1157  32.1404

     occupation numbers 
     1.0000   1.0000   1.0000   1.0000   1.0000   1.0000   1.0000   1.0000
     1.0000   1.0000   1.0000   1.0000   1.0000   1.0000   1.0000   1.0000
     1.0000   1.0000   1.0000   1.0000   1.0000   1.0000   1.0000   1.0000
     1.0000   1.0000   1.0000   1.0000   1.0000   1.0000   1.0000   1.0000
     1.0000   1.0000   1.0000   1.0000   1.0000   1.0000   1.0000   1.0000
     1.0000   1.0000   1.0000   1.0000   1.0000   1.0000   1.0000   1.0000
     1.0000   1.0000   1.0000   1.0000   1.0000   1.0000   1.0000   1.0000
     1.0000   1.0000   1.0000   1.0000   1.0000   1.0000   1.0000   1.0000
     1.0000   1.0000   1.0000   1.0000   1.0000   1.0000   1.0000   1.0000
     1.0000   1.0000   1.0000   1.0000   1.0000   1.0000   1.0000   1.0000
     1.0000   1.0000   1.0000   1.0000   1.0000   1.0000   1.0000   1.0000
     1.0000   1.0000   1.0000   1.0000   1.0000   1.0000   1.0000   1.0000
     1.0000   1.0000   1.0000   1.0000   1.0000   1.0000   1.0000   1.0000
     1.0000   1.0000   1.0000   1.0000   1.0000   1.0000   1.0000   1.0000
     1.0000   1.0000   1.0000   1.0000   1.0000   1.0000   1.0000   1.0000
     1.0000   1.0000   1.0000   1.0000   1.0000   1.0000   1.0000   1.0000
     1.0000   1.0000   1.0000   1.0000   1.0000   1.0000   1.0000   1.0000
     1.0000   1.0000   1.0000   1.0000   1.0000   1.0000   1.0000   1.0000
     1.0000   1.0000   1.0000   1.0000   1.0000   1.0000   1.0000   1.0000
     1.0000   1.0000   1.0000   1.0000   1.0000   1.0000   1.0000   1.0000
     1.0000   1.0000   1.0000   1.0000   1.0000   1.0000   1.0000   1.0000
     1.0000   1.0000   1.0000   1.0000   1.0000   1.0000   1.0000   1.0000
     1.0000   1.0000   1.0000   1.0000   1.0000   1.0000   1.0000   1.0000
     1.0000   1.0000   1.0000   1.0000   1.0000   1.0000   1.0000   1.0000
     1.0000   1.0000   1.0000   1.0000   1.0000   1.0000   1.0000   1.0000
     1.0000   1.0000   1.0000   1.0000   1.0000   1.0000   1.0000   1.0000
     1.0000   1.0000   1.0000   1.0000   1.0000   1.0000   1.0000   1.0000
     1.0000   1.0000   1.0000   1.0000   1.0000   1.0000   1.0000   1.0000
     1.0000   1.0000   1.0000   1.0000   1.0000   1.0000   1.0000   1.0000
     1.0000   1.0000   1.0000   1.0000   1.0000   1.0000   1.0000   1.0000
     1.0000   1.0000   1.0000   1.0000   1.0000   1.0000   1.0000   1.0000
     1.0000   1.0000   1.0000   1.0000   1.0000   1.0000   1.0000   1.0000
     1.0000   1.0000   1.0000   1.0000   1.0000   1.0000   1.0000   1.0000
     1.0000   1.0000   1.0000   1.0000   1.0000   1.0000   1.0000   1.0000
     1.0000   1.0000   1.0000   1.0000   1.0000   1.0000   1.0000   1.0000
     1.0000   1.0000   1.0000   1.0000   1.0000   1.0000   1.0000   1.0000
     1.0000   1.0000   1.0000   1.0000   1.0000   1.0000   1.0000   1.0000
     1.0000   1.0000   1.0000   1.0000   1.0000   1.0000   1.0000   1.0000
     1.0000   1.0000   1.0000   1.0000   1.0000   1.0000   1.0000   1.0000
     1.0000   1.0000   1.0000   1.0000   1.0000   1.0000   1.0000   1.0000
     1.0000   1.0000   1.0000   1.0000   1.0000   1.0000   1.0000   1.0000
     1.0000   1.0000   1.0000   1.0000   1.0000   1.0000   1.0000   1.0000
     1.0000   1.0000   1.0000   1.0000   1.0000   1.0000   1.0000   1.0000
     1.0000   1.0000   1.0000   1.0000   1.0000   1.0000   1.0000   1.0000
     1.0000   1.0000   1.0000   1.0000   1.0000   1.0000   1.0000   1.0000
     1.0000   1.0000   1.0000   1.0000   1.0000   1.0000   1.0000   1.0000
     1.0000   1.0000   1.0000   1.0000   1.0000   1.0000   1.0000   1.0000
     1.0000   1.0000   1.0000   1.0000   1.0000   1.0000   1.0000   1.0000
     1.0000   1.0000   1.0000   1.0000   1.0000   1.0000   1.0000   1.0000
     1.0000   1.0000   1.0000   1.0000   1.0000   1.0000   1.0000   1.0000
     1.0000   1.0000   1.0000   1.0000   1.0000   1.0000   1.0000   1.0000
     1.0000   1.0000   1.0000   1.0000   1.0000   1.0000   1.0000   1.0000
     1.0000   1.0000   1.0000   1.0000   1.0000   1.0000   1.0000   1.0000
     1.0000   1.0000   1.0000   1.0000   1.0000   1.0000   1.0000   1.0000
     1.0000   1.0000   1.0000   1.0000   1.0000   1.0000   1.0000   1.0000
     1.0000   1.0000   1.0000   1.0000   1.0000   1.0000   1.0000   1.0000
     1.0000   1.0000   1.0000   1.0000   1.0000   1.0000   1.0000   1.0000
     1.0000   1.0000   1.0000   1.0000   1.0000   1.0000   1.0000   1.0000
     1.0000   1.0000   1.0000   1.0000   1.0000   1.0000   1.0000   1.0000
     1.0000   1.0000   1.0000   1.0000   1.0000   1.0000   1.0000   1.0000
     1.0000   1.0000   1.0000   1.0000   1.0000   1.0000   1.0000   1.0000
     1.0000   1.0000   1.0000   1.0000   1.0000   1.0000   1.0000   1.0000
     1.0000   1.0000   1.0000   1.0000   1.0000   1.0000   1.0000   1.0000
     1.0000   1.0000   1.0000   1.0000   1.0000   1.0000   1.0000   1.0000
     1.0000   1.0000   1.0000   1.0000   1.0000   1.0000   1.0000   1.0000
     1.0000   1.0000   1.0000   1.0000   1.0000   1.0000   1.0000   1.0000
     1.0000   1.0000   1.0000   1.0000   1.0000   1.0000   1.0000   1.0000
     1.0000   1.0000   1.0000   1.0000   1.0000   1.0000   1.0000   1.0000
     1.0000   1.0000   1.0000   1.0000   1.0000   1.0000   1.0000   1.0000
     1.0000   1.0000   1.0000   1.0000   1.0000   1.0000   1.0000   1.0000
     1.0000   1.0000   1.0000   1.0000   1.0000   1.0000   1.0000   1.0000
     1.0000   1.0000   1.0000   1.0000   1.0000   1.0000   1.0000   1.0000
     1.0000   1.0000   1.0000   1.0000   1.0000   1.0000   1.0000   1.0000
     1.0000   1.0000   1.0000   1.0000   1.0000   1.0000   1.0000   1.0000
     1.0000   1.0000   1.0000   1.0000   1.0000   1.0000   1.0000   1.0000
     1.0000   1.0000   1.0000   1.0000   1.0000   1.0000   1.0000   1.0000
     1.0000   1.0000   1.0000   1.0000   1.0000   1.0000   1.0000   1.0000
     1.0000   1.0000   1.0000   1.0000   1.0000   1.0000   1.0000   1.0000
     1.0000   1.0000   1.0000   1.0000   1.0000   1.0000   1.0000   1.0000
     1.0000   1.0000   1.0000   1.0000   1.0000   1.0000   1.0000   1.0000
     1.0000   1.0000   1.0000   1.0000   1.0000   1.0000   1.0000   1.0000
     1.0000   1.0000   1.0000   1.0000   1.0000   1.0000   1.0000   1.0000
     1.0000   1.0000   1.0000   1.0000   1.0000   1.0000   1.0000   1.0000
     1.0000   1.0000   1.0000   1.0000   1.0000   1.0000   1.0000   1.0000
     1.0000   1.0000   1.0000   1.0000   1.0000   1.0000   1.0000   1.0000
     1.0000   1.0000   1.0000   1.0000   1.0000   1.0000   1.0000   1.0000
     1.0000   1.0000   1.0000   1.0000   1.0000   1.0000   1.0000   1.0000
     1.0000   1.0000   1.0000   1.0000   1.0000   1.0000   1.0000   1.0000
     1.0000   1.0000   1.0000   1.0000   1.0000   1.0000   1.0000   1.0000
     1.0000   1.0000   1.0000   1.0000   1.0000   1.0000   1.0000   1.0000
     1.0000   0.9999   0.9999   0.9999   0.9999   0.9999   0.9998   0.9998
     0.9997   0.9997   0.9996   0.9995   0.9993   0.9990   0.9989   0.9986
     0.9984   0.9978   0.9971   0.9967   0.9959   0.9950   0.9933   0.9906
     0.9875   0.9806   0.9761   0.9747   0.9629   0.9575   0.9456   0.9335
     0.8989   0.8800   0.8470   0.8233   0.7930   0.7609   0.7163   0.6948
     0.6026   0.5866   0.4882   0.4608   0.3780   0.3336   0.3025   0.2618
     0.2099   0.1866   0.1427   0.0904   0.0809   0.0681   0.0611   0.0489
     0.0387   0.0341   0.0214   0.0173   0.0129   0.0092   0.0074   0.0053
     0.0043   0.0040   0.0028   0.0024   0.0017   0.0013   0.0010   0.0007
     0.0006   0.0004   0.0003   0.0003   0.0002   0.0002   0.0001   0.0001
     0.0001   0.0001   0.0000   0.0000   0.0000   0.0000   0.0000   0.0000
     0.0000   0.0000   0.0000   0.0000   0.0000   0.0000   0.0000   0.0000
     0.0000   0.0000   0.0000   0.0000   0.0000   0.0000   0.0000   0.0000
     0.0000   0.0000   0.0000   0.0000   0.0000   0.0000   0.0000   0.0000
     0.0000   0.0000   0.0000   0.0000   0.0000   0.0000   0.0000   0.0000
     0.0000   0.0000   0.0000   0.0000   0.0000   0.0000   0.0000   0.0000
     0.0000   0.0000   0.0000   0.0000   0.0000   0.0000   0.0000   0.0000
     0.0000   0.0000   0.0000   0.0000   0.0000   0.0000   0.0000   0.0000
     0.0000   0.0000   0.0000   0.0000   0.0000   0.0000   0.0000   0.0000
     0.0000   0.0000   0.0000   0.0000   0.0000   0.0000   0.0000   0.0000
     0.0000   0.0000   0.0000   0.0000   0.0000   0.0000   0.0000   0.0000
     0.0000   0.0000   0.0000   0.0000   0.0000   0.0000   0.0000   0.0000
     0.0000   0.0000   0.0000   0.0000   0.0000   0.0000   0.0000   0.0000
     0.0000   0.0000   0.0000   0.0000   0.0000   0.0000   0.0000   0.0000
     0.0000   0.0000   0.0000   0.0000   0.0000   0.0000   0.0000   0.0000
     0.0000   0.0000   0.0000   0.0000   0.0000   0.0000   0.0000   0.0000
     0.0000   0.0000   0.0000   0.0000   0.0000   0.0000   0.0000   0.0000
     0.0000   0.0000   0.0000   0.0000   0.0000   0.0000   0.0000   0.0000
     0.0000   0.0000   0.0000   0.0000   0.0000   0.0000   0.0000   0.0000
     0.0000   0.0000   0.0000   0.0000   0.0000   0.0000   0.0000   0.0000
     0.0000   0.0000   0.0000   0.0000   0.0000   0.0000   0.0000   0.0000
     0.0000   0.0000   0.0000   0.0000   0.0000   0.0000   0.0000   0.0000
     0.0000   0.0000   0.0000   0.0000   0.0000   0.0000   0.0000   0.0000
     0.0000   0.0000   0.0000   0.0000   0.0000   0.0000   0.0000   0.0000
     0.0000   0.0000   0.0000   0.0000   0.0000   0.0000   0.0000   0.0000
     0.0000   0.0000   0.0000   0.0000   0.0000   0.0000   0.0000   0.0000
     0.0000   0.0000   0.0000   0.0000   0.0000   0.0000   0.0000   0.0000
     0.0000   0.0000   0.0000   0.0000   0.0000   0.0000   0.0000   0.0000
     0.0000   0.0000   0.0000   0.0000   0.0000   0.0000   0.0000   0.0000
     0.0000   0.0000   0.0000   0.0000   0.0000   0.0000   0.0000   0.0000
     0.0000   0.0000   0.0000   0.0000   0.0000   0.0000   0.0000   0.0000
     0.0000   0.0000   0.0000   0.0000   0.0000   0.0000   0.0000   0.0000
     0.0000   0.0000   0.0000   0.0000   0.0000   0.0000   0.0000   0.0000
     0.0000   0.0000   0.0000   0.0000   0.0000   0.0000   0.0000   0.0000
     0.0000   0.0000   0.0000   0.0000   0.0000   0.0000   0.0000   0.0000
     0.0000   0.0000   0.0000   0.0000   0.0000   0.0000

          k = 0.2500 0.2000-0.2000 ( 92913 PWs)   bands (ev):

   -95.3304 -95.1339 -95.1152 -95.1057 -95.0713 -95.0214 -94.9526 -94.9514
   -94.9323 -94.9289 -94.8208 -94.7779 -94.7653 -94.7413 -94.7379 -94.7132
   -94.7127 -94.7025 -94.6833 -94.6677 -94.6569 -94.6530 -94.6419 -94.6328
   -94.6161 -94.6159 -94.5912 -94.5801 -94.5665 -94.5452 -94.5212 -94.5108
   -94.5087 -94.4928 -94.4739 -94.4639 -94.4408 -94.4348 -94.4125 -94.4046
   -94.4041 -94.3895 -94.3784 -94.3751 -94.3271 -94.3258 -94.2626 -94.2324
   -94.2265 -53.0063 -52.7299 -52.6990 -52.6397 -52.6222 -52.5828 -52.5347
   -52.5078 -52.5010 -52.4729 -52.4274 -52.4172 -52.4072 -52.4001 -52.4000
   -52.3919 -52.3860 -52.3722 -52.3251 -52.3071 -52.3059 -52.2855 -52.2818
   -52.2768 -52.2752 -52.2417 -52.2393 -52.2310 -52.2263 -52.2217 -52.2162
   -52.2098 -52.2085 -52.2077 -52.2047 -52.1850 -52.1719 -52.1613 -52.1543
   -52.1501 -52.1385 -52.1307 -52.1297 -52.1214 -52.1079 -52.1014 -52.0815
   -52.0728 -52.0709 -52.0635 -52.0617 -52.0586 -52.0542 -52.0511 -52.0449
   -52.0410 -52.0397 -52.0367 -52.0319 -52.0229 -52.0089 -52.0076 -51.9996
   -51.9991 -51.9982 -51.9910 -51.9838 -51.9823 -51.9800 -51.9771 -51.9759
   -51.9700 -51.9689 -51.9634 -51.9572 -51.9552 -51.9523 -51.9493 -51.9407
   -51.9205 -51.9159 -51.9134 -51.9104 -51.9099 -51.8991 -51.8973 -51.8972
   -51.8881 -51.8818 -51.8786 -51.8628 -51.8564 -51.8550 -51.8506 -51.8434
   -51.8367 -51.8357 -51.8328 -51.8282 -51.8279 -51.8268 -51.8238 -51.8182
   -51.8123 -51.8093 -51.8080 -51.7989 -51.7969 -51.7933 -51.7872 -51.7868
   -51.7819 -51.7770 -51.7725 -51.7683 -51.7589 -51.7427 -51.7400 -51.7352
   -51.7303 -51.7212 -51.7199 -51.7108 -51.7049 -51.7015 -51.6992 -51.6967
   -51.6926 -51.6803 -51.6791 -51.6755 -51.6740 -51.6655 -51.6484 -51.6459
   -51.6439 -51.6410 -51.6088 -51.6054 -51.5931 -51.5666 -51.5634 -51.5569
   -51.5551 -51.5289 -51.4970 -51.4961 -29.3501 -29.2661 -29.2610 -29.2268
   -29.2239 -29.1994 -29.1904 -29.1874 -29.1737 -29.1614 -29.1506 -29.1343
   -29.1291 -29.1176 -29.1001 -29.0920 -29.0837 -29.0719 -29.0651 -29.0525
   -29.0490 -29.0408 -29.0351 -29.0002 -28.9887 -28.9784 -28.9715 -28.9653
   -28.9549 -28.9415 -28.9355 -28.9255 -28.9154 -28.9087 -28.9004 -28.8934
   -28.8843 -28.8753 -28.8619 -28.8319 -28.8164 -28.7924 -28.7900 -28.7748
   -28.7121 -28.6944 -28.6322 -28.5703 -28.5475  -8.7544  -8.5651  -8.4992
    -8.1863  -8.1748  -8.1312  -8.0955  -8.0794  -8.0483  -8.0363  -8.0257
    -7.9975  -7.9760  -7.9527  -7.9351  -7.9147  -7.9068  -7.8941  -7.8906
    -7.8731  -7.8479  -7.8400  -7.8187  -7.8115  -7.7989  -7.7853  -7.7761
    -7.7640  -7.7480  -7.7345  -7.7120  -7.6812  -7.6765  -7.6705  -7.6586
    -7.6470  -7.6331  -7.6173  -7.6083  -7.5901  -7.5837  -7.5772  -7.5726
    -7.5499  -7.5375  -7.5230  -7.5115  -7.4933  -7.4767  -7.4614  -7.4464
    -7.4321  -7.4275  -7.4225  -7.4112  -7.4056  -7.3917  -7.3852  -7.3581
    -7.3502  -7.3354  -7.3254  -7.3244  -7.3074  -7.2943  -7.2862  -7.2766
    -7.2619  -7.2483  -7.2415  -7.2252  -7.2182  -7.2082  -7.1989  -7.1871
    -7.1775  -7.1662  -7.1561  -7.1482  -7.1380  -7.1308  -7.1183  -7.1113
    -7.0965  -7.0851  -7.0783  -7.0670  -7.0585  -7.0506  -7.0324  -7.0258
    -7.0126  -7.0087  -7.0014  -6.9870  -6.9792  -6.9749  -6.9697  -6.9562
    -6.9509  -6.9375  -6.9178  -6.9111  -6.9015  -6.8910  -6.8836  -6.8750
    -6.8646  -6.8569  -6.8482  -6.8439  -6.8285  -6.8175  -6.8146  -6.8015
    -6.7933  -6.7821  -6.7798  -6.7683  -6.7598  -6.7425  -6.7290  -6.7174
    -6.7095  -6.6958  -6.6818  -6.6689  -6.6509  -6.6406  -6.6263  -6.6098
    -6.5954  -6.5845  -6.5724  -6.5601  -6.5393  -6.5298  -6.4767  -6.4664
    -6.4452  -6.4202  -6.4021  -6.3582  -6.3444  -6.2626  -6.0108  -5.9917
    10.7589  11.1617  11.3223  11.7124  11.9334  12.0226  12.2509  12.2899
    12.5153  12.5651  12.7040  12.7506  12.8780  12.9561  13.0084  13.0406
    13.0779  13.1168  13.1626  13.2003  13.2576  13.3275  13.3609  13.3758
    13.4098  13.4451  13.4600  13.4779  13.5043  13.5413  13.5725  13.5862
    13.6026  13.6408  13.6476  13.6662  13.6729  13.6951  13.7126  13.7287
    13.7483  13.7605  13.7784  13.7879  13.8094  13.8180  13.8313  13.8426
    13.8547  13.8678  13.8775  13.8863  13.8987  13.9130  13.9275  13.9369
    13.9451  13.9582  13.9656  13.9826  13.9894  14.0031  14.0127  14.0254
    14.0339  14.0491  14.0549  14.0601  14.0776  14.0908  14.0978  14.1041
    14.1118  14.1282  14.1347  14.1445  14.1523  14.1676  14.1753  14.1873
    14.1947  14.2042  14.2143  14.2269  14.2351  14.2418  14.2557  14.2578
    14.2689  14.2757  14.2888  14.2998  14.3083  14.3161  14.3269  14.3381
    14.3468  14.3508  14.3625  14.3694  14.3748  14.3864  14.3916  14.4025
    14.4130  14.4207  14.4347  14.4514  14.4574  14.4691  14.4798  14.4889
    14.5003  14.5054  14.5209  14.5262  14.5362  14.5509  14.5569  14.5640
    14.5764  14.5825  14.5889  14.5976  14.6011  14.6235  14.6342  14.6399
    14.6555  14.6639  14.6720  14.6798  14.6858  14.6912  14.7009  14.7114
    14.7223  14.7296  14.7371  14.7429  14.7611  14.7672  14.7806  14.7922
    14.7989  14.8099  14.8147  14.8344  14.8387  14.8526  14.8582  14.8598
    14.8711  14.8825  14.8916  14.8968  14.9106  14.9228  14.9262  14.9426
    14.9524  14.9593  14.9645  14.9704  14.9839  14.9996  15.0108  15.0172
    15.0265  15.0381  15.0465  15.0597  15.0679  15.0773  15.0877  15.0980
    15.1128  15.1174  15.1236  15.1356  15.1440  15.1566  15.1616  15.1729
    15.1878  15.2019  15.2103  15.2180  15.2222  15.2334  15.2541  15.2570
    15.2635  15.2777  15.2895  15.2943  15.3017  15.3098  15.3250  15.3439
    15.3463  15.3574  15.3712  15.3762  15.3876  15.4045  15.4194  15.4244
    15.4298  15.4455  15.4595  15.4664  15.4785  15.4889  15.4956  15.5189
    15.5349  15.5446  15.5560  15.5625  15.5684  15.5776  15.5881  15.6054
    15.6161  15.6245  15.6365  15.6474  15.6593  15.6697  15.6979  15.7075
    15.7156  15.7300  15.7450  15.7675  15.7754  15.7838  15.7913  15.8203
    15.8376  15.8483  15.8554  15.8579  15.8771  15.8958  15.9051  15.9159
    15.9301  15.9394  15.9540  15.9625  15.9800  16.0070  16.0154  16.0324
    16.0458  16.0598  16.0860  16.0920  16.1248  16.1368  16.1613  16.1738
    16.2013  16.2126  16.2436  16.2592  16.2643  16.2834  16.2944  16.3228
    16.3473  16.3737  16.4026  16.4178  16.4338  16.4506  16.4832  16.5169
    16.5327  16.5615  16.6047  16.6392  16.6749  16.7018  16.7391  16.7731
    16.7981  16.8471  16.8744  16.9208  16.9479  16.9816  16.9976  17.0318
    17.0832  17.1030  17.1599  17.1623  17.2413  17.2763  17.2877  17.3088
    17.3389  17.3784  17.4276  17.4474  17.4653  17.5374  17.5581  17.5931
    17.6210  17.6547  17.6842  17.7015  17.7232  17.7856  17.7905  17.8294
    17.8542  17.8873  17.9370  17.9703  17.9807  18.0077  18.0294  18.0599
    18.0896  18.1192  18.1274  18.1757  18.1951  18.2274  18.2408  18.2837
    18.3102  18.3370  18.3557  18.3951  18.4301  18.4397  18.4648  18.4941
    18.5243  18.5366  18.5646  18.6066  18.6222  18.6442  18.6636  18.7159
    18.7298  18.7531  18.7700  18.8180  18.8461  18.8660  18.8907  18.9312
    18.9349  18.9784  18.9979  19.0393  19.0660  19.0739  19.1033  19.1369
    19.1615  19.1740  19.2038  19.2202  19.2338  19.2651  19.3053  19.3385
    19.3511  19.3902  19.4024  19.4526  19.4671  19.4850  19.5122  19.5270
    19.5487  19.5978  19.6063  19.6348  19.6583  19.6864  19.7184  19.7307
    19.7744  19.7985  19.8092  19.8414  19.8854  19.8981  19.9248  19.9758
    20.0071  20.0294  20.0659  20.0980  20.1205  20.1614  20.1847  20.2059
    20.2295  20.2694  20.2976  20.3443  20.3787  20.4044  20.4297  20.4729
    20.5114  20.5407  20.5850  20.6101  20.6636  20.6895  20.7088  20.7629
    20.8071  20.8423  20.8647  20.8935  20.9165  20.9875  21.0174  21.0540
    21.0851  21.1242  21.1426  21.1860  21.1986  21.2561  21.2969  21.3287
    21.3610  21.4068  21.4486  21.4817  21.5297  21.5612  21.5943  21.6163
    21.6617  21.6854  21.7068  21.7630  21.8025  21.8413  21.8773  21.8974
    21.9269  21.9677  21.9914  22.0400  22.0687  22.1205  22.1469  22.1694
    22.2119  22.2195  22.2650  22.3048  22.3411  22.3704  22.4040  22.4248
    22.4783  22.5162  22.5468  22.5757  22.6137  22.6593  22.6658  22.7242
    22.7926  22.8054  22.8550  22.8718  22.8900  22.9262  22.9337  22.9758
    22.9972  23.0274  23.0761  23.1011  23.1362  23.1650  23.2067  23.2421
    23.2730  23.3201  23.3633  23.3891  23.4065  23.4432  23.4777  23.5172
    23.5393  23.5769  23.5988  23.6515  23.6628  23.6929  23.7172  23.7630
    23.7841  23.8256  23.8683  23.9196  23.9312  23.9576  23.9840  24.0300
    24.0658  24.1182  24.1354  24.1727  24.2141  24.2460  24.2789  24.3129
    24.3825  24.4082  24.4259  24.5095  24.5387  24.5651  24.6054  24.6289
    24.6903  24.7377  24.7730  24.8121  24.8729  24.9020  24.9375  24.9701
    25.0112  25.0686  25.1051  25.1475  25.2250  25.2603  25.3077  25.3591
    25.3932  25.4645  25.5178  25.6193  25.6537  25.6939  25.7769  25.8051
    25.8469  25.8957  25.9897  26.0157  26.0989  26.1854  26.2476  26.2961
    26.3654  26.4044  26.4954  26.5841  26.6919  26.7063  26.7468  26.8702
    26.9047  26.9500  26.9828  27.0413  27.0960  27.1687  27.2240  27.2545
    27.3196  27.3766  27.4651  27.4984  27.5451  27.5982  27.6476  27.7485
    27.7881  27.8221  27.8860  27.9271  27.9771  28.0294  28.0732  28.1097
    28.1340  28.2040  28.2600  28.3091  28.3387  28.3767  28.4696  28.4998
    28.5595  28.5976  28.6643  28.6963  28.7433  28.7796  28.8177  28.8801
    28.9356  28.9756  29.0583  29.1134  29.1345  29.1479  29.2413  29.2818
    29.3296  29.3714  29.4197  29.4693  29.4970  29.5535  29.6036  29.6184
    29.6516  29.6958  29.7312  29.7917  29.8321  29.8938  29.9441  29.9780
    29.9963  30.0397  30.0897  30.1254  30.1694  30.2453  30.2502  30.3067
    30.3489  30.3697  30.4133  30.4680  30.4871  30.5395  30.5705  30.6312
    30.6738  30.6996  30.7298  30.8196  30.8715  30.8957  30.9432  30.9734
    30.9911  31.0202  31.0581  31.1162  31.1510  31.1742  31.2179  31.2675
    31.2850  31.3332  31.3893  31.4077  31.4763  31.5087  31.5587  31.5935
    31.6340  31.6581  31.7025  31.7509  31.7912  31.8279  31.8631  31.8772
    31.9341  32.0004  32.0386  32.0986  32.1198  32.1401

     occupation numbers 
     1.0000   1.0000   1.0000   1.0000   1.0000   1.0000   1.0000   1.0000
     1.0000   1.0000   1.0000   1.0000   1.0000   1.0000   1.0000   1.0000
     1.0000   1.0000   1.0000   1.0000   1.0000   1.0000   1.0000   1.0000
     1.0000   1.0000   1.0000   1.0000   1.0000   1.0000   1.0000   1.0000
     1.0000   1.0000   1.0000   1.0000   1.0000   1.0000   1.0000   1.0000
     1.0000   1.0000   1.0000   1.0000   1.0000   1.0000   1.0000   1.0000
     1.0000   1.0000   1.0000   1.0000   1.0000   1.0000   1.0000   1.0000
     1.0000   1.0000   1.0000   1.0000   1.0000   1.0000   1.0000   1.0000
     1.0000   1.0000   1.0000   1.0000   1.0000   1.0000   1.0000   1.0000
     1.0000   1.0000   1.0000   1.0000   1.0000   1.0000   1.0000   1.0000
     1.0000   1.0000   1.0000   1.0000   1.0000   1.0000   1.0000   1.0000
     1.0000   1.0000   1.0000   1.0000   1.0000   1.0000   1.0000   1.0000
     1.0000   1.0000   1.0000   1.0000   1.0000   1.0000   1.0000   1.0000
     1.0000   1.0000   1.0000   1.0000   1.0000   1.0000   1.0000   1.0000
     1.0000   1.0000   1.0000   1.0000   1.0000   1.0000   1.0000   1.0000
     1.0000   1.0000   1.0000   1.0000   1.0000   1.0000   1.0000   1.0000
     1.0000   1.0000   1.0000   1.0000   1.0000   1.0000   1.0000   1.0000
     1.0000   1.0000   1.0000   1.0000   1.0000   1.0000   1.0000   1.0000
     1.0000   1.0000   1.0000   1.0000   1.0000   1.0000   1.0000   1.0000
     1.0000   1.0000   1.0000   1.0000   1.0000   1.0000   1.0000   1.0000
     1.0000   1.0000   1.0000   1.0000   1.0000   1.0000   1.0000   1.0000
     1.0000   1.0000   1.0000   1.0000   1.0000   1.0000   1.0000   1.0000
     1.0000   1.0000   1.0000   1.0000   1.0000   1.0000   1.0000   1.0000
     1.0000   1.0000   1.0000   1.0000   1.0000   1.0000   1.0000   1.0000
     1.0000   1.0000   1.0000   1.0000   1.0000   1.0000   1.0000   1.0000
     1.0000   1.0000   1.0000   1.0000   1.0000   1.0000   1.0000   1.0000
     1.0000   1.0000   1.0000   1.0000   1.0000   1.0000   1.0000   1.0000
     1.0000   1.0000   1.0000   1.0000   1.0000   1.0000   1.0000   1.0000
     1.0000   1.0000   1.0000   1.0000   1.0000   1.0000   1.0000   1.0000
     1.0000   1.0000   1.0000   1.0000   1.0000   1.0000   1.0000   1.0000
     1.0000   1.0000   1.0000   1.0000   1.0000   1.0000   1.0000   1.0000
     1.0000   1.0000   1.0000   1.0000   1.0000   1.0000   1.0000   1.0000
     1.0000   1.0000   1.0000   1.0000   1.0000   1.0000   1.0000   1.0000
     1.0000   1.0000   1.0000   1.0000   1.0000   1.0000   1.0000   1.0000
     1.0000   1.0000   1.0000   1.0000   1.0000   1.0000   1.0000   1.0000
     1.0000   1.0000   1.0000   1.0000   1.0000   1.0000   1.0000   1.0000
     1.0000   1.0000   1.0000   1.0000   1.0000   1.0000   1.0000   1.0000
     1.0000   1.0000   1.0000   1.0000   1.0000   1.0000   1.0000   1.0000
     1.0000   1.0000   1.0000   1.0000   1.0000   1.0000   1.0000   1.0000
     1.0000   1.0000   1.0000   1.0000   1.0000   1.0000   1.0000   1.0000
     1.0000   1.0000   1.0000   1.0000   1.0000   1.0000   1.0000   1.0000
     1.0000   1.0000   1.0000   1.0000   1.0000   1.0000   1.0000   1.0000
     1.0000   1.0000   1.0000   1.0000   1.0000   1.0000   1.0000   1.0000
     1.0000   1.0000   1.0000   1.0000   1.0000   1.0000   1.0000   1.0000
     1.0000   1.0000   1.0000   1.0000   1.0000   1.0000   1.0000   1.0000
     1.0000   1.0000   1.0000   1.0000   1.0000   1.0000   1.0000   1.0000
     1.0000   1.0000   1.0000   1.0000   1.0000   1.0000   1.0000   1.0000
     1.0000   1.0000   1.0000   1.0000   1.0000   1.0000   1.0000   1.0000
     1.0000   1.0000   1.0000   1.0000   1.0000   1.0000   1.0000   1.0000
     1.0000   1.0000   1.0000   1.0000   1.0000   1.0000   1.0000   1.0000
     1.0000   1.0000   1.0000   1.0000   1.0000   1.0000   1.0000   1.0000
     1.0000   1.0000   1.0000   1.0000   1.0000   1.0000   1.0000   1.0000
     1.0000   1.0000   1.0000   1.0000   1.0000   1.0000   1.0000   1.0000
     1.0000   1.0000   1.0000   1.0000   1.0000   1.0000   1.0000   1.0000
     1.0000   1.0000   1.0000   1.0000   1.0000   1.0000   1.0000   1.0000
     1.0000   1.0000   1.0000   1.0000   1.0000   1.0000   1.0000   1.0000
     1.0000   1.0000   1.0000   1.0000   1.0000   1.0000   1.0000   1.0000
     1.0000   1.0000   1.0000   1.0000   1.0000   1.0000   1.0000   1.0000
     1.0000   1.0000   1.0000   1.0000   1.0000   1.0000   1.0000   1.0000
     1.0000   1.0000   1.0000   1.0000   1.0000   1.0000   1.0000   1.0000
     1.0000   1.0000   1.0000   1.0000   1.0000   1.0000   1.0000   1.0000
     1.0000   1.0000   1.0000   1.0000   1.0000   1.0000   1.0000   1.0000
     1.0000   1.0000   1.0000   1.0000   1.0000   1.0000   1.0000   1.0000
     1.0000   1.0000   1.0000   1.0000   1.0000   1.0000   1.0000   1.0000
     1.0000   1.0000   1.0000   1.0000   1.0000   1.0000   1.0000   1.0000
     1.0000   1.0000   1.0000   1.0000   1.0000   1.0000   1.0000   1.0000
     1.0000   1.0000   1.0000   1.0000   1.0000   1.0000   1.0000   1.0000
     1.0000   1.0000   1.0000   1.0000   1.0000   1.0000   1.0000   1.0000
     1.0000   1.0000   1.0000   1.0000   1.0000   1.0000   1.0000   1.0000
     1.0000   1.0000   1.0000   1.0000   1.0000   1.0000   1.0000   1.0000
     1.0000   1.0000   1.0000   1.0000   1.0000   1.0000   1.0000   1.0000
     1.0000   1.0000   1.0000   1.0000   1.0000   1.0000   1.0000   1.0000
     1.0000   1.0000   1.0000   1.0000   1.0000   1.0000   1.0000   1.0000
     1.0000   1.0000   1.0000   1.0000   1.0000   1.0000   1.0000   1.0000
     1.0000   1.0000   1.0000   1.0000   1.0000   1.0000   1.0000   1.0000
     1.0000   1.0000   1.0000   1.0000   1.0000   1.0000   1.0000   1.0000
[...]
     atom   84 type  2   force =    -0.00007633   -0.00007577    0.00001647
     atom   85 type  3   force =    -0.00143424    0.00071701    0.00045124
     atom   86 type  2   force =    -0.00036052    0.00059288   -0.00002343
     atom   87 type  3   force =    -0.00236680   -0.00033625   -0.00417258
     atom   88 type  3   force =    -0.00207190    0.00090962   -0.00001070
     atom   89 type  1   force =    -0.00247030    0.00298094   -0.00222778
     atom   90 type  3   force =    -0.00110458    0.00041981    0.00298854
     atom   91 type  2   force =    -0.00007656    0.00021980    0.00010296
     atom   92 type  2   force =     0.00044481   -0.00018347    0.00004518
     atom   93 type  2   force =    -0.00015243    0.00024864   -0.00002813
     atom   94 type  2   force =    -0.00002069    0.00065865   -0.00020113
     atom   95 type  2   force =    -0.00020783   -0.00000034   -0.00004056
     atom   96 type  3   force =     0.00040540   -0.00004179   -0.00022011
     atom   97 type  3   force =    -0.00141455   -0.00036987   -0.00063271
     atom   98 type  2   force =    -0.00051767   -0.00016186    0.00005045
     atom   99 type  2   force =     0.00008337    0.00023372   -0.00024366
     atom  100 type  3   force =    -0.00130858   -0.00200577   -0.00088905
     The Hubbard contrib.    to forces
     atom    1 type  2   force =     0.00000000    0.00000000    0.00000000
     atom    2 type  3   force =     0.00000000    0.00000000    0.00000000
     atom    3 type  2   force =     0.00000000    0.00000000    0.00000000
     atom    4 type  2   force =     0.00000000    0.00000000    0.00000000
     atom    5 type  3   force =     0.00000000    0.00000000    0.00000000
     atom    6 type  2   force =     0.00000000    0.00000000    0.00000000
     atom    7 type  2   force =     0.00000000    0.00000000    0.00000000
     atom    8 type  2   force =     0.00000000    0.00000000    0.00000000
     atom    9 type  3   force =     0.00000000    0.00000000    0.00000000
     atom   10 type  2   force =     0.00000000    0.00000000    0.00000000
     atom   11 type  3   force =     0.00000000    0.00000000    0.00000000
     atom   12 type  3   force =     0.00000000    0.00000000    0.00000000
     atom   13 type  3   force =     0.00000000    0.00000000    0.00000000
     atom   14 type  3   force =     0.00000000    0.00000000    0.00000000
     atom   15 type  2   force =     0.00000000    0.00000000    0.00000000
     atom   16 type  3   force =     0.00000000    0.00000000    0.00000000
     atom   17 type  2   force =     0.00000000    0.00000000    0.00000000
     atom   18 type  2   force =     0.00000000    0.00000000    0.00000000
     atom   19 type  3   force =     0.00000000    0.00000000    0.00000000
     atom   20 type  2   force =     0.00000000    0.00000000    0.00000000
     atom   21 type  2   force =     0.00000000    0.00000000    0.00000000
     atom   22 type  2   force =     0.00000000    0.00000000    0.00000000
     atom   23 type  3   force =     0.00000000    0.00000000    0.00000000
     atom   24 type  2   force =     0.00000000    0.00000000    0.00000000
     atom   25 type  2   force =     0.00000000    0.00000000    0.00000000
     atom   26 type  3   force =     0.00000000    0.00000000    0.00000000
     atom   27 type  2   force =     0.00000000    0.00000000    0.00000000
     atom   28 type  2   force =     0.00000000    0.00000000    0.00000000
     atom   29 type  3   force =     0.00000000    0.00000000    0.00000000
     atom   30 type  2   force =     0.00000000    0.00000000    0.00000000
     atom   31 type  3   force =     0.00000000    0.00000000    0.00000000
     atom   32 type  3   force =     0.00000000    0.00000000    0.00000000
     atom   33 type  3   force =     0.00000000    0.00000000    0.00000000
     atom   34 type  1   force =     0.00000000    0.00000000    0.00000000
     atom   35 type  2   force =     0.00000000    0.00000000    0.00000000
     atom   36 type  2   force =     0.00000000    0.00000000    0.00000000
     atom   37 type  3   force =     0.00000000    0.00000000    0.00000000
     atom   38 type  3   force =     0.00000000    0.00000000    0.00000000
     atom   39 type  2   force =     0.00000000    0.00000000    0.00000000
     atom   40 type  3   force =     0.00000000    0.00000000    0.00000000
     atom   41 type  3   force =     0.00000000    0.00000000    0.00000000
     atom   42 type  3   force =     0.00000000    0.00000000    0.00000000
     atom   43 type  2   force =     0.00000000    0.00000000    0.00000000
     atom   44 type  3   force =     0.00000000    0.00000000    0.00000000
     atom   45 type  2   force =     0.00000000    0.00000000    0.00000000
     atom   46 type  3   force =     0.00000000    0.00000000    0.00000000
     atom   47 type  3   force =     0.00000000    0.00000000    0.00000000
     atom   48 type  3   force =     0.00000000    0.00000000    0.00000000
     atom   49 type  2   force =     0.00000000    0.00000000    0.00000000
     atom   50 type  3   force =     0.00000000    0.00000000    0.00000000
     atom   51 type  3   force =     0.00000000    0.00000000    0.00000000
     atom   52 type  3   force =     0.00000000    0.00000000    0.00000000
     atom   53 type  2   force =     0.00000000    0.00000000    0.00000000
     atom   54 type  3   force =     0.00000000    0.00000000    0.00000000
     atom   55 type  3   force =     0.00000000    0.00000000    0.00000000
     atom   56 type  2   force =     0.00000000    0.00000000    0.00000000
     atom   57 type  3   force =     0.00000000    0.00000000    0.00000000
     atom   58 type  2   force =     0.00000000    0.00000000    0.00000000
     atom   59 type  3   force =     0.00000000    0.00000000    0.00000000
     atom   60 type  3   force =     0.00000000    0.00000000    0.00000000
     atom   61 type  2   force =     0.00000000    0.00000000    0.00000000
     atom   62 type  3   force =     0.00000000    0.00000000    0.00000000
     atom   63 type  2   force =     0.00000000    0.00000000    0.00000000
     atom   64 type  2   force =     0.00000000    0.00000000    0.00000000
     atom   65 type  3   force =     0.00000000    0.00000000    0.00000000
     atom   66 type  2   force =     0.00000000    0.00000000    0.00000000
     atom   67 type  2   force =     0.00000000    0.00000000    0.00000000
     atom   68 type  2   force =     0.00000000    0.00000000    0.00000000
     atom   69 type  2   force =     0.00000000    0.00000000    0.00000000
     atom   70 type  3   force =     0.00000000    0.00000000    0.00000000
     atom   71 type  2   force =     0.00000000    0.00000000    0.00000000
     atom   72 type  2   force =     0.00000000    0.00000000    0.00000000
     atom   73 type  3   force =     0.00000000    0.00000000    0.00000000
     atom   74 type  2   force =     0.00000000    0.00000000    0.00000000
     atom   75 type  2   force =     0.00000000    0.00000000    0.00000000
     atom   76 type  3   force =     0.00000000    0.00000000    0.00000000
     atom   77 type  3   force =     0.00000000    0.00000000    0.00000000
     atom   78 type  2   force =     0.00000000    0.00000000    0.00000000
     atom   79 type  3   force =     0.00000000    0.00000000    0.00000000
     atom   80 type  2   force =     0.00000000    0.00000000    0.00000000
     atom   81 type  3   force =     0.00000000    0.00000000    0.00000000
     atom   82 type  3   force =     0.00000000    0.00000000    0.00000000
     atom   83 type  3   force =     0.00000000    0.00000000    0.00000000
     atom   84 type  2   force =     0.00000000    0.00000000    0.00000000
     atom   85 type  3   force =     0.00000000    0.00000000    0.00000000
     atom   86 type  2   force =     0.00000000    0.00000000    0.00000000
     atom   87 type  3   force =     0.00000000    0.00000000    0.00000000
     atom   88 type  3   force =     0.00000000    0.00000000    0.00000000
     atom   89 type  1   force =     0.00000000    0.00000000    0.00000000
     atom   90 type  3   force =     0.00000000    0.00000000    0.00000000
     atom   91 type  2   force =     0.00000000    0.00000000    0.00000000
     atom   92 type  2   force =     0.00000000    0.00000000    0.00000000
     atom   93 type  2   force =     0.00000000    0.00000000    0.00000000
     atom   94 type  2   force =     0.00000000    0.00000000    0.00000000
     atom   95 type  2   force =     0.00000000    0.00000000    0.00000000
     atom   96 type  3   force =     0.00000000    0.00000000    0.00000000
     atom   97 type  3   force =     0.00000000    0.00000000    0.00000000
     atom   98 type  2   force =     0.00000000    0.00000000    0.00000000
     atom   99 type  2   force =     0.00000000    0.00000000    0.00000000
     atom  100 type  3   force =     0.00000000    0.00000000    0.00000000
     The SCF correction term to forces
     atom    1 type  2   force =     0.00076585    0.00027618   -0.00100846
     atom    2 type  3   force =     0.00042236    0.00010007   -0.00038935
     atom    3 type  2   force =     0.00111618    0.00006540    0.00026047
     atom    4 type  2   force =     0.00044779    0.00014615    0.00123195
     atom    5 type  3   force =    -0.00005414    0.00028592    0.00017200
     atom    6 type  2   force =     0.00020299    0.00023494    0.00034621
     atom    7 type  2   force =     0.00005834    0.00021276   -0.00120827
     atom    8 type  2   force =     0.00021533   -0.00024711   -0.00036831
     atom    9 type  3   force =     0.00004939    0.00021312   -0.00014787
     atom   10 type  2   force =     0.00077217   -0.00019752   -0.00028520
     atom   11 type  3   force =     0.00013113    0.00003269   -0.00046365
     atom   12 type  3   force =    -0.00023117    0.00001482    0.00002549
     atom   13 type  3   force =    -0.00013535   -0.00041620    0.00015215
     atom   14 type  3   force =    -0.00042965   -0.00040928    0.00039848
     atom   15 type  2   force =    -0.00024800   -0.00033388    0.00015192
     atom   16 type  3   force =     0.00000253   -0.00001150   -0.00018477
     atom   17 type  2   force =    -0.00034412   -0.00005913    0.00005302
     atom   18 type  2   force =    -0.00065563    0.00019841    0.00045273
     atom   19 type  3   force =    -0.00030925    0.00027598    0.00048007
     atom   20 type  2   force =    -0.00007465    0.00000051    0.00041997
     atom   21 type  2   force =    -0.00001434    0.00026000   -0.00101270
     atom   22 type  2   force =     0.00027696   -0.00040801   -0.00057814
     atom   23 type  3   force =     0.00029507    0.00020227    0.00034920
     atom   24 type  2   force =    -0.00013085    0.00063950    0.00038016
     atom   25 type  2   force =    -0.00003362    0.00098446    0.00069459
     atom   26 type  3   force =     0.00031329    0.00004243   -0.00028311
     atom   27 type  2   force =    -0.00026860    0.00047160   -0.00033304
     atom   28 type  2   force =     0.00047445    0.00036054    0.00044779
     atom   29 type  3   force =     0.00029361   -0.00042463    0.00043636
     atom   30 type  2   force =     0.00012452   -0.00107091    0.00033511
     atom   31 type  3   force =     0.00009425    0.00039706   -0.00004292
     atom   32 type  3   force =     0.00017955   -0.00001722   -0.00038157
     atom   33 type  3   force =    -0.00000384   -0.00028155    0.00003983
     atom   34 type  1   force =     0.00003969   -0.00005941   -0.00011654
     atom   35 type  2   force =     0.00029051   -0.00092078   -0.00029349
     atom   36 type  2   force =    -0.00025147   -0.00065062   -0.00038508
     atom   37 type  3   force =     0.00013485   -0.00080129    0.00024358
     atom   38 type  3   force =    -0.00015881   -0.00043149    0.00048759
     atom   39 type  2   force =     0.00005894   -0.00015432   -0.00016408
     atom   40 type  3   force =    -0.00002011   -0.00003764   -0.00051197
     atom   41 type  3   force =     0.00022533   -0.00013622   -0.00044994
     atom   42 type  3   force =    -0.00028102    0.00038238    0.00015869
     atom   43 type  2   force =    -0.00001362    0.00036455    0.00080031
     atom   44 type  3   force =    -0.00007662    0.00017927    0.00030723
     atom   45 type  2   force =     0.00017555   -0.00008642   -0.00056169
     atom   46 type  3   force =     0.00003513    0.00023111   -0.00042613
     atom   47 type  3   force =     0.00006011    0.00026084   -0.00021047
     atom   48 type  3   force =     0.00006669    0.00061571    0.00044160
     atom   49 type  2   force =    -0.00013536    0.00127960    0.00058204
     atom   50 type  3   force =     0.00002695    0.00034275   -0.00020080
     atom   51 type  3   force =    -0.00014062    0.00003940   -0.00050308
     atom   52 type  3   force =    -0.00057971    0.00018740   -0.00042382
     atom   53 type  2   force =    -0.00049327    0.00011286    0.00014314
     atom   54 type  3   force =    -0.00004168   -0.00034802    0.00046790
     atom   55 type  3   force =    -0.00005723   -0.00004909    0.00009547
     atom   56 type  2   force =    -0.00025957   -0.00016609   -0.00027831
     atom   57 type  3   force =    -0.00026573   -0.00010902   -0.00031365
     atom   58 type  2   force =     0.00023705   -0.00092715   -0.00001911
     atom   59 type  3   force =     0.00011296   -0.00062262    0.00042136
     atom   60 type  3   force =     0.00003672   -0.00044300   -0.00013156
     atom   61 type  2   force =     0.00035673   -0.00119403    0.00021071
     atom   62 type  3   force =     0.00002837   -0.00007756   -0.00036285
     atom   63 type  2   force =     0.00027820   -0.00022528   -0.00060252
     atom   64 type  2   force =     0.00016398   -0.00003489   -0.00036770
     atom   65 type  3   force =     0.00051228   -0.00012641    0.00014619
     atom   66 type  2   force =     0.00039346   -0.00060068    0.00079713
     atom   67 type  2   force =     0.00009150   -0.00002653    0.00034769
     atom   68 type  2   force =    -0.00009288    0.00023802   -0.00025832
     atom   69 type  2   force =    -0.00047298   -0.00007608   -0.00058879
     atom   70 type  3   force =    -0.00039462    0.00032615    0.00037881
     atom   71 type  2   force =     0.00016267    0.00111505    0.00034137
     atom   72 type  2   force =    -0.00035190    0.00109396    0.00085620
     atom   73 type  3   force =     0.00016399    0.00054645    0.00036740
     atom   74 type  2   force =    -0.00008494    0.00073050   -0.00053733
     atom   75 type  2   force =    -0.00060857    0.00015399   -0.00106474
     atom   76 type  3   force =     0.00014491    0.00001826   -0.00062720
     atom   77 type  3   force =    -0.00051966    0.00006698    0.00041391
     atom   78 type  2   force =     0.00018502   -0.00000955    0.00100699
     atom   79 type  3   force =    -0.00023848    0.00017943    0.00084376
     atom   80 type  2   force =    -0.00021402   -0.00054238    0.00026302
     atom   81 type  3   force =    -0.00016724    0.00015632   -0.00078367
     atom   82 type  3   force =    -0.00001413   -0.00005044   -0.00063321
     atom   83 type  3   force =    -0.00022814    0.00014769   -0.00029876
     atom   84 type  2   force =    -0.00004201   -0.00011345    0.00029247
     atom   85 type  3   force =    -0.00005569   -0.00017953    0.00071134
     atom   86 type  2   force =    -0.00009844   -0.00078378    0.00027341
     atom   87 type  3   force =     0.00006770   -0.00006566   -0.00016450
     atom   88 type  3   force =    -0.00013420   -0.00017137   -0.00031456
     atom   89 type  1   force =    -0.00001730   -0.00002805   -0.00007376
     atom   90 type  3   force =     0.00005611   -0.00007264    0.00003207
     atom   91 type  2   force =    -0.00008045   -0.00039030    0.00046528
     atom   92 type  2   force =     0.00041509    0.00036582    0.00046946
     atom   93 type  2   force =     0.00052115   -0.00033887    0.00040310
     atom   94 type  2   force =    -0.00005102   -0.00038832   -0.00088227
     atom   95 type  2   force =    -0.00038477   -0.00004141   -0.00115092
     atom   96 type  3   force =    -0.00009723   -0.00026670    0.00007073
     atom   97 type  3   force =     0.00003485    0.00019636    0.00056001
     atom   98 type  2   force =     0.00020854    0.00048004    0.00054939
     atom   99 type  2   force =     0.00008248    0.00091637    0.00053560
     atom  100 type  3   force =     0.00009574    0.00024396   -0.00004419

     Total force =     0.836475     Total SCF correction =     0.007257

     Writing output data file Zr49Cu49Al2.save
 
     init_run     :     29.14s CPU     29.83s WALL (       1 calls)
     electrons    :   4651.93s CPU   4733.07s WALL (       1 calls)
     forces       :     20.49s CPU     21.03s WALL (       1 calls)

     Called by init_run:
     wfcinit      :     23.23s CPU     23.50s WALL (       1 calls)
     wfcinit:atom :      0.04s CPU      0.07s WALL (       1 calls)
     wfcinit:wfcr :     22.98s CPU     23.17s WALL (       1 calls)
     potinit      :      1.21s CPU      1.25s WALL (       1 calls)

     Called by electrons:
     c_bands      :   4042.59s CPU   4093.38s WALL (      52 calls)
     sum_band     :    511.40s CPU    527.27s WALL (      52 calls)
     v_of_rho     :     16.08s CPU     16.62s WALL (      53 calls)
     v_h          :      1.51s CPU      1.56s WALL (      53 calls)
     v_xc         :     14.85s CPU     15.34s WALL (      54 calls)
     newd         :     66.78s CPU     79.68s WALL (      53 calls)
     PAW_pot      :      9.07s CPU      9.50s WALL (      53 calls)
     mix_rho      :      4.00s CPU      4.27s WALL (      52 calls)

     Called by c_bands:
     init_us_2    :      6.18s CPU      6.29s WALL (     105 calls)
     cegterg      :   3832.05s CPU   3876.78s WALL (      52 calls)

     Called by sum_band:
     sum_band:bec :      1.42s CPU      1.43s WALL (      52 calls)
     addusdens    :     81.87s CPU     94.99s WALL (      52 calls)

     Called by *egterg:
     h_psi        :   1391.59s CPU   1399.59s WALL (     137 calls)
     s_psi        :    341.79s CPU    343.11s WALL (     137 calls)
     g_psi        :      2.18s CPU      2.19s WALL (      84 calls)
     cdiaghg      :   1051.98s CPU   1067.77s WALL (     136 calls)
     cegterg:over :    435.40s CPU    438.38s WALL (      84 calls)
     cegterg:upda :    240.57s CPU    241.75s WALL (      84 calls)
     cegterg:last :    211.78s CPU    211.89s WALL (      52 calls)
     cdiaghg:chol :     52.62s CPU     53.15s WALL (     136 calls)
     cdiaghg:inve :     62.57s CPU     62.98s WALL (     136 calls)
     cdiaghg:para :    152.02s CPU    159.09s WALL (     272 calls)

     Called by h_psi:
     h_psi:pot    :   1385.80s CPU   1393.78s WALL (     137 calls)
     h_psi:calbec :    339.30s CPU    340.05s WALL (     137 calls)
     vloc_psi     :    710.03s CPU    715.94s WALL (     137 calls)
     add_vuspsi   :    336.48s CPU    337.79s WALL (     137 calls)

     General routines
     calbec       :    514.47s CPU    515.62s WALL (     193 calls)
     fft          :     19.36s CPU     20.32s WALL (     855 calls)
     ffts         :      0.40s CPU      0.41s WALL (     105 calls)
     fftw         :    644.63s CPU    649.72s WALL (  292282 calls)
     interpolate  :      3.17s CPU      3.32s WALL (     105 calls)
 
     Parallel routines
     fft_scatt_xy :     39.34s CPU     39.63s WALL (  293242 calls)
     fft_scatt_yz :    148.84s CPU    150.85s WALL (  293242 calls)

     PAW routines
     PAW_pot      :      9.07s CPU      9.50s WALL (      53 calls)
 
     PWSCF        :     1h18m CPU        1h25m WALL

 
   This run was terminated on:  18:51: 0  19Apr2019            

=------------------------------------------------------------------------------=
   JOB DONE.
=------------------------------------------------------------------------------=
