  COHP#  atomMU  atomNU     distance     translation      ICOHP (at) eF   for spin  1
      1     Cu1     Zr2      2.67233       0   0   0           -1.30931 
      2     Cu1     Cu3      2.41424       0   0   0           -0.54176 
      3     Cu1     Cu7      2.71190       0   0   1           -0.27695 
      4     Cu1     Cu8      2.86160       0   0   0           -0.18840 
      5     Cu1     Zr9      2.73453       0   0   0           -1.02110 
      6     Cu1    Cu10      2.80793       0   0   0           -0.22483 
      7     Cu1    Zr11      2.72436       0   0   0           -1.17362 
      8     Cu1    Cu15      3.92658       0   0   1           -0.00452 
      9     Cu1    Zr26      3.05806       0   0   0           -0.56831 
     10     Cu1    Cu28      3.80838       0   0   0            0.00064 
     11     Cu1    Zr32      3.08899       0   0   1           -0.49647 
     12     Cu1    Zr76      3.68338       1   0   0           -0.17752 
     13     Cu1    Zr82      2.37453       1   0   0           -2.37689 
     14     Cu1    Zr83      3.83675       1   0   0           -0.11787 
     15     Cu1    Zr87      4.08351       1   0   0           -0.07986 
     16     Zr2     Cu3      2.52666       0   0   0           -1.66592 
     17     Zr2     Cu7      2.96128       0   0   1           -0.74376 
     18     Zr2     Zr9      4.09721       0   0   0           -0.39386 
     19     Zr2    Cu21      4.13378       0   1   0           -0.05932 
     20     Zr2    Cu22      3.32029       0   1   0           -0.37143 
     21     Zr2    Zr23      3.42302       0   1   0           -0.97975 
     22     Zr2    Zr26      3.87376       0   0   0           -0.44248 
     23     Zr2    Cu27      3.64833       0   0   0           -0.16113 
     24     Zr2    Cu28      3.22969       0   0   0           -0.42048 
     25     Zr2    Zr32      3.60520       0   0   1           -0.67063 
     26     Zr2    Cu45      2.49696       0   1   0           -1.90326 
     27     Zr2    Zr46      3.06306       0   1   0           -1.85252 
     28     Zr2    Zr47      2.82445       0   1   0           -3.05991 
     29     Zr2    Zr50      3.36475       0   1   1           -1.04430 
     30     Zr2    Zr62      3.87063       0   1   0           -0.49704 
     31     Zr2    Zr76      3.17467       1   0   0           -1.68176 
     32     Cu3     Cu4      3.42924       0   0   0           -0.05622 
     33     Cu3     Zr9      2.38153       0   0   0           -2.29110 
     34     Cu3    Cu10      2.66640       0   0   0           -0.33926 
     35     Cu3    Zr12      4.10258       0   0   0           -0.09352 
     36     Cu3    Zr23      2.73140       0   1   0           -1.12037 
     37     Cu3    Zr26      3.66868       0   0   0           -0.21167 
     38     Cu3    Cu27      4.18032       0   0   0           -0.00703 
     39     Cu3    Cu28      2.37974       0   0   0           -0.72129 
     40     Cu3    Zr29      3.15072       0   0   0           -0.50469 
     41     Cu3    Zr47      3.61387       0   1   0           -0.20899 
     42     Cu3    Zr48      4.00617       0   1   0           -0.09218 
     43     Cu3    Zr76      3.48079       1   0   0           -0.19670 
     44     Cu3    Cu78      3.27025       1   0   0           -0.04176 
     45     Cu3    Zr85      3.68997       1   0   0           -0.17368 
     46     Cu4     Zr5      2.80250       0   0   0           -0.91378 
     47     Cu4     Cu6      2.79950       0   0   0           -0.25910 
     48     Cu4     Zr9      4.13230       0   0   0           -0.05780 
     49     Cu4    Zr13      3.62668       0   0   0           -0.22461 
     50     Cu4    Zr23      2.43517       0   1   0           -2.21547 
     51     Cu4    Cu25      2.21563       0   1   0           -1.00332 
     52     Cu4    Zr29      3.51138       0   0   0           -0.24903 
     53     Cu4    Zr42      3.98328       0   1   0           -0.12153 
     54     Cu4    Zr48      3.52048       0   1   0           -0.22872 
     55     Cu4    Cu78      2.51478       1   0   0           -0.45613 
     56     Cu4    Zr79      3.71818       1   0   0           -0.12139 
     57     Cu4    Cu80      3.62455       1   0   0           -0.04373 
     58     Cu4    Zr85      2.32383       1   0   0           -2.99604 
     59     Cu4    Zr97      3.40076       1   1   0           -0.23462 
     60     Zr5     Cu6      3.51345       0   0   0           -0.26596 
     61     Zr5     Cu7      2.96053       0   0   0           -0.64303 
     62     Zr5    Zr13      3.66865       0   0   0           -0.61449 
     63     Zr5    Zr19      3.95986       0   1   0           -0.52421 
     64     Zr5    Cu21      2.53472       0   1  -1           -1.53302 
     65     Zr5    Cu24      2.59792       0   1   0           -1.48512 
     66     Zr5    Cu25      2.71969       0   1   0           -1.11215 
     67     Zr5    Zr50      3.11232       0   1   0           -1.77429 
     68     Zr5    Zr55      3.96577       1   0   0           -0.33924 
     69     Zr5    Zr59      4.18068       1   0   0           -0.45332 
     70     Zr5    Zr79      3.37535       1   0   0           -0.96363 
     71     Zr5    Cu80      2.12050       1   0   0           -4.36614 
     72     Zr5    Zr81      2.84158       1   0   0           -2.76485 
     73     Zr5    Zr82      4.18308       1   0  -1           -0.27139 
     74     Zr5    Zr85      3.81895       1   0   0           -0.60661 
     75     Zr5    Zr97      3.36974       1   1   0           -1.04345 
     76     Zr5    Cu99      3.74293       1   1   0           -0.11536 
     77     Cu6     Cu7      3.41838       0   0   0           -0.06564 
     78     Cu6    Zr13      2.24107       0   0   0           -3.48912 
     79     Cu6    Cu25      2.93690       0   1   0           -0.17634 
     80     Cu6    Zr29      3.02527       0   0   0           -0.55849 
     81     Cu6    Cu30      2.94859       0   0   0           -0.11681 
     82     Cu6    Zr31      3.07084       0   0   0           -0.55027 
     83     Cu6    Zr32      3.30186       0   0   0           -0.28015 
     84     Cu6    Zr48      2.50039       0   1   0           -1.99488 
     85     Cu6    Cu49      2.70826       0   1   0           -0.39707 
     86     Cu6    Zr50      2.82518       0   1   0           -0.96548 
     87     Cu6    Zr85      3.82678       1   0   0           -0.13516 
     88     Cu7    Zr13      2.90773       0   0   0           -0.76783 
     89     Cu7    Cu21      2.79722       0   1  -1           -0.22796 
     90     Cu7    Zr32      3.24097       0   0   0           -0.38516 
     91     Cu7    Cu45      4.01196       0   1  -1           -0.01308 
     92     Cu7    Zr50      2.39143       0   1   0           -2.42254 
     93     Cu7    Zr76      3.14695       1   0  -1           -0.45840 
     94     Cu7    Cu80      3.50678       1   0   0           -0.06025 
     95     Cu7    Zr81      3.44981       1   0   0           -0.26811 
     96     Cu7    Zr82      2.22046       1   0  -1           -3.53207 
     97     Cu7    Cu86      3.83670       1   0   0           -0.01750 
     98     Cu8    Cu10      3.58155       0   0   0           -0.00410 
     99     Cu8    Zr11      2.31308       0   0   0           -2.91799 
    100     Cu8    Zr13      3.78622       0   0   1           -0.12518 
    101     Cu8    Cu15      2.32720       0   0   1           -0.79478 
    102     Cu8    Zr16      3.72576       0   0   0           -0.14540 
    103     Cu8    Zr26      2.57956       0   0   0           -1.45618 
    104     Cu8    Cu30      3.85800       0   0   1           -0.00974 
    105     Cu8    Zr32      2.32529       0   0   1           -2.74732 
    106     Cu8    Zr33      3.63373       0   0   0           -0.16943 
    107     Cu8    Al34      3.50844       0   0   0           -0.23029 
    108     Cu8    Zr38      3.00814       0   0   1           -0.75601 
    109     Cu8    Cu39      2.73117       0   0   0           -0.28376 
    110     Cu8    Zr51      4.03902       0   0   0           -0.08331 
    111     Cu8    Zr82      3.91472       1   0   0           -0.05372 
    112     Cu8    Zr87      4.19325       1   0   0           -0.06108 
    113     Zr9    Cu10      3.49622       0   0   0           -0.23570 
    114     Zr9    Zr11      3.90816       0   0   0           -0.39021 
    115     Zr9    Zr12      3.60800       0   0   0           -0.66550 
    116     Zr9    Zr23      4.07685       0   1   0           -0.42665 
    117     Zr9    Cu63      4.01812       1   0   0           -0.14060 
    118     Zr9    Cu75      3.32244       1   0   0           -0.29493 
    119     Zr9    Zr76      3.12107       1   0   0           -1.67417 
    120     Zr9    Zr77      3.56460       1   0   0           -0.71129 
    121     Zr9    Cu78      2.78926       1   0   0           -1.04432 
    122     Zr9    Zr82      3.28624       1   0   0           -1.13383 
    123     Zr9    Zr83      2.23944       1   0   0          -11.21541 
    124     Zr9    Cu84      3.08450       1   0   0           -0.48944 
    125     Zr9    Zr85      3.30157       1   0   0           -1.20532 
    126    Cu10    Zr11      2.64837       0   0   0           -1.23822 
    127    Cu10    Zr12      2.46376       0   0   0           -2.05784 
    128    Cu10    Zr14      4.16513       0   0   0           -0.04925 
    129    Cu10    Zr26      2.45814       0   0   0           -2.18707 
    130    Cu10    Cu27      4.04205       0   0   0           -0.03261 
    131    Cu10    Cu28      2.92600       0   0   0           -0.22690 
    132    Cu10    Zr29      2.77527       0   0   0           -1.05191 
    133    Cu10    Al34      3.42252       0   0   0           -0.28187 
    134    Cu10    Cu35      2.97359       0   0   0           -0.12133 
    135    Cu10    Cu36      2.70957       0   0   0           -0.24979 
    136    Cu10    Zr40      4.05943       0   0   0           -0.03502 
    137    Cu10    Cu53      3.89573       0   0   0           -0.00303 
    138    Cu10    Al89      3.83719       1   0   0           -0.14593 
    139    Zr11    Zr12      3.31195       0   0   0           -0.81256 
    140    Zr11    Cu15      2.81321       0   0   1           -0.94486 
    141    Zr11    Zr16      3.29580       0   0   0           -0.96252 
    142    Zr11    Zr26      3.48714       0   0   0           -0.93942 
    143    Zr11    Al34      3.74922       0   0   0           -0.42792 
    144    Zr11    Cu36      4.17217       0   0   0           -0.02759 
    145    Zr11    Cu39      3.39198       0   0   0           -0.27875 
    146    Zr11    Zr40      3.76756       0   0   0           -0.26612 
    147    Zr11    Zr82      3.51293       1   0   0           -0.82027 
    148    Zr11    Zr83      3.61672       1   0   0           -0.41230 
    149    Zr11    Zr87      2.96366       1   0   0           -2.04958 
    150    Zr11    Zr88      4.16146       1   0   0           -0.15391 
    151    Zr11    Al89      2.28131       1   0   0           -5.29970 
    152    Zr11    Cu94      3.62066       1   0   0           -0.11864 
    153    Zr12    Zr14      3.08487       0   0   0           -1.95400 
    154    Zr12    Cu17      2.96152       0   0   0           -0.52526 
    155    Zr12    Cu18      2.95967       0   0   0           -0.69941 
    156    Zr12    Zr29      3.49580       0   0   0           -1.01564 
    157    Zr12    Cu36      2.88234       0   0   0           -0.88863 
    158    Zr12    Zr40      4.08806       0   0   0           -0.24515 
    159    Zr12    Zr83      3.63262       1   0   0           -0.41393 
    160    Zr12    Cu84      3.75692       1   0   0           -0.12497 
    161    Zr12    Zr85      3.58234       1   0   0           -0.75971 
    162    Zr12    Al89      2.82855       1   0   0           -2.01459 
    163    Zr12    Zr90      2.50623       1   0   0           -6.07259 
    164    Zr12    Cu91      3.09932       1   0   0           -0.51933 
    165    Zr13    Zr14      3.27555       0   0   0           -1.31541 
    166    Zr13    Cu15      2.99988       0   0   0           -0.68345 
    167    Zr13    Cu20      3.85065       0   0   0           -0.14401 
    168    Zr13    Zr29      3.51059       0   0   0           -0.80302 
    169    Zr13    Cu30      3.09063       0   0   0           -0.53878 
    170    Zr13    Zr32      3.11236       0   0   0           -1.79452 
    171    Zr13    Zr50      3.93177       0   1   0           -0.49041 
    172    Zr13    Cu80      3.49043       1   0   0           -0.27352 
    173    Zr13    Zr82      3.24281       1   0  -1           -1.38698 
    174    Zr13    Zr85      3.24925       1   0   0           -1.43487 
    175    Zr13    Cu86      2.13672       1   0   0           -4.45444 
    176    Zr13    Cu91      3.65411       1   0   0           -0.23940 
    177    Zr14    Cu15      3.32176       0   0   0           -0.39131 
    178    Zr14    Cu17      4.13593       0   0   0           -0.10044 
    179    Zr14    Cu18      2.32830       0   0   0           -2.76241 
    180    Zr14    Zr19      3.27304       0   0   0           -1.17659 
    181    Zr14    Cu20      2.92471       0   0   0           -0.83485 
    182    Zr14    Cu24      4.03105       0   0   0           -0.08262 
    183    Zr14    Zr29      2.95560       0   0   0           -2.45826 
    184    Zr14    Cu30      3.07083       0   0   0           -0.56806 
    185    Zr14    Cu36      2.91543       0   0   0           -0.83820 
    186    Zr14    Zr37      3.41331       0   0   0           -0.87499 
    187    Zr14    Zr38      3.04839       0   0   0           -2.06478 
    188    Zr14    Zr42      3.88741       0   0   0           -0.41988 
    189    Zr14    Zr85      4.06532       1   0   0           -0.31600 
    190    Zr14    Cu86      3.60016       1   0   0           -0.17683 
    191    Zr14    Cu91      3.23848       1   0   0           -0.43376 
    192    Zr14    Cu92      4.13640       1   0   0           -0.05951 
    193    Cu15    Zr16      2.86874       0   0  -1           -0.85385 
    194    Cu15    Zr19      3.72751       0   0   0           -0.13854 
    195    Cu15    Cu20      2.25169       0   0   0           -0.93698 
    196    Cu15    Cu24      3.94346       0   0   0           -0.00620 
    197    Cu15    Cu30      4.04796       0   0   0           -0.01568 
    198    Cu15    Zr32      3.74624       0   0   0           -0.18867 
    199    Cu15    Zr38      2.99087       0   0   0           -0.66501 
    200    Cu15    Cu39      3.59668       0   0  -1           -0.02615 
    201    Cu15    Zr82      3.47526       1   0  -1           -0.21870 
    202    Cu15    Cu86      2.76678       1   0   0           -0.16280 
    203    Cu15    Zr87      2.69369       1   0  -1           -1.17976 
    204    Cu15   Zr100      3.70601       1   0   0           -0.13655 
    205    Zr16    Zr19      3.09028       0   0   1           -1.77950 
    206    Zr16    Cu20      3.47460       0   0   1           -0.22931 
    207    Zr16    Cu21      2.42989       0   0   0           -2.24083 
    208    Zr16    Cu22      2.89374       0   0   0           -0.79421 
    209    Zr16    Cu24      2.91900       0   0   1           -0.84830 
    210    Zr16    Zr38      3.68269       0   0   1           -0.52004 
    211    Zr16    Cu39      2.56719       0   0   0           -1.92913 
    212    Zr16    Zr40      3.80573       0   0   0           -0.45891 
    213    Zr16    Cu45      3.36336       0   0   0           -0.34166 
    214    Zr16    Zr50      3.86829       0   0   1           -0.47108 
    215    Zr16    Zr76      4.11948       1  -1   0           -0.40668 
    216    Zr16    Zr87      3.91980       1   0   0           -0.35371 
    217    Zr16    Al89      3.31963       1   0   0           -1.24467 
    218    Zr16    Cu94      2.43228       1   0   0           -2.03469 
    219    Zr16    Cu95      4.04143       1   0   0           -0.07052 
    220    Zr16   Zr100      3.42209       1   0   1           -1.00430 
    221    Cu17    Cu18      2.51705       0   0   0           -0.42518 
    222    Cu17    Cu22      2.74675       0   0   0           -0.15783 
    223    Cu17    Zr23      3.14635       0   0   0           -0.54254 
    224    Cu17    Cu25      4.11462       0   0   0           -0.00817 
    225    Cu17    Cu36      3.08706       0   0   0           -0.13568 
    226    Cu17    Zr40      2.56522       0   0   0           -1.57625 
    227    Cu17    Zr42      3.03099       0   0   0           -0.67201 
    228    Cu17    Cu78      3.85977       1  -1   0           -0.04024 
    229    Cu17    Al89      2.62527       1   0   0           -1.07784 
    230    Cu17    Zr90      3.44383       1   0   0           -0.15307 
    231    Cu17    Cu94      3.83485       1   0   0           -0.00492 
    232    Cu17    Zr96      2.56818       1   0   0           -1.43108 
    233    Cu17    Zr97      2.58487       1   0   0           -1.54018 
    234    Cu18    Zr19      3.08589       0   0   0           -0.49889 
    235    Cu18    Cu20      2.70443       0   0   0           -0.30149 
    236    Cu18    Cu24      2.71737       0   0   0           -0.31378 
    237    Cu18    Cu25      3.76769       0   0   0           -0.00138 
    238    Cu18    Cu36      3.40220       0   0   0           -0.06241 
    239    Cu18    Zr42      3.23140       0   0   0           -0.33971 
    240    Cu18    Zr90      3.25865       1   0   0           -0.39070 
    241    Cu18    Cu91      3.28094       1   0   0           -0.05148 
    242    Cu18    Cu92      2.82462       1   0   0           -0.25075 
    243    Cu18    Zr96      4.12754       1   0   0           -0.06502 
    244    Cu18    Zr97      2.26699       1   0   0           -3.16580 
    245    Cu18    Cu98      3.83030       1   0   0           -0.00888 
    246    Cu18    Cu99      3.85587       1   0   0           -0.00886 
    247    Zr19    Cu20      3.57728       0   0   0           -0.19671 
    248    Zr19    Cu21      3.72295       0   0  -1           -0.16807 
    249    Zr19    Cu24      2.20930       0   0   0           -3.39006 
    250    Zr19    Cu25      2.66105       0   0   0           -1.19791 
    251    Zr19    Zr37      3.65015       0   0   0           -0.56088 
    252    Zr19    Zr38      2.49175       0   0   0           -6.40272 
    253    Zr19    Cu39      3.76963       0   0  -1           -0.21379 
    254    Zr19    Zr42      2.92840       0   0   0           -2.34563 
    255    Zr19    Cu43      3.09254       0   0   0           -0.48597 
    256    Zr19    Zr44      3.38467       0   0   0           -0.98797 
    257    Zr19    Cu49      3.51781       0   0   0           -0.18113 
    258    Zr19    Zr50      3.33063       0   0   0           -1.14202 
    259    Zr19    Cu66      4.19207       0   0   0           -0.04460 
    260    Zr19    Zr97      3.95899       1   0   0           -0.49434 
    261    Cu20    Cu24      2.75882       0   0   0           -0.30597 
    262    Cu20    Zr38      4.14944       0   0   0           -0.05576 
    263    Cu20    Cu86      2.58256       1   0   0           -0.46550 
    264    Cu20    Zr87      3.02503       1   0  -1           -0.58026 
    265    Cu20    Cu91      2.77242       1   0   0           -0.21733 
    266    Cu20    Cu92      2.18454       1   0   0           -1.07629 
    267    Cu20    Cu93      3.13439       1   0   0           -0.04753 
    268    Cu20    Zr97      4.08012       1   0   0           -0.07261 
    269    Cu20    Cu99      3.45654       1   0   0           -0.02412 
    270    Cu20   Zr100      2.39186       1   0   0           -2.40637 
    271    Cu21    Cu22      3.15971       0   0   0           -0.09505 
    272    Cu21    Cu24      2.60681       0   0   1           -0.34281 
    273    Cu21    Cu25      4.16117       0   0   1           -0.00672 
    274    Cu21    Cu45      3.71576       0   0   0           -0.03221 
    275    Cu21    Zr50      2.85197       0   0   1           -0.84339 
    276    Cu21    Zr76      2.78001       1  -1   0           -0.96682 
    277    Cu21    Cu80      3.88963       1  -1   1           -0.02986 
    278    Cu21    Zr81      2.27483       1  -1   1           -2.95277 
    279    Cu21    Cu94      2.89127       1   0   0           -0.27454 
    280    Cu21    Cu95      3.65667       1   0   0           -0.00986 
    281    Cu21    Cu99      4.15419       1   0   1           -0.00198 
    282    Cu21   Zr100      3.67437       1   0   1           -0.11454 
    283    Cu22    Zr23      3.02928       0   0   0           -0.61318 
    284    Cu22    Cu39      3.67525       0   0   0           -0.00698 
    285    Cu22    Zr40      2.32105       0   0   0           -2.84029 
    286    Cu22    Cu45      2.88129       0   0   0           -0.28928 
    287    Cu22    Zr76      2.28310       1  -1   0           -3.24907 
    288    Cu22    Cu78      3.86495       1  -1   0           -0.01558 
    289    Cu22    Al89      3.04160       1   0   0           -0.63868 
    290    Cu22    Cu94      2.66632       1   0   0           -0.21859 
    291    Cu22    Zr96      3.29557       1   0   0           -0.26404 
    292    Zr23    Cu25      2.93019       0   0   0           -0.83070 
    293    Zr23    Cu28      3.70682       0  -1   0           -0.10699 
    294    Zr23    Zr40      3.43070       0   0   0           -0.93502 
    295    Zr23    Zr42      2.88509       0   0   0           -2.77521 
    296    Zr23    Zr47      3.06077       0   0   0           -1.91957 
    297    Zr23    Zr48      3.67426       0   0   0           -0.63006 
    298    Zr23    Zr76      3.53079       1  -1   0           -0.83517 
    299    Zr23    Cu78      2.57966       1  -1   0           -1.64426 
    300    Zr23    Zr97      3.55199       1   0   0           -0.75235 
    301    Cu24    Cu25      2.89555       0   0   0           -0.13285 
    302    Cu24    Zr42      4.04619       0   0   0           -0.07151 
    303    Cu24    Zr50      3.72975       0   0   0           -0.11239 
    304    Cu24    Zr79      4.02741       1  -1   0           -0.10199 
    305    Cu24    Zr81      3.83447       1  -1   0           -0.13959 
    306    Cu24    Cu92      3.46214       1   0   0           -0.00168 
    307    Cu24    Zr97      2.70058       1   0   0           -1.13292 
    308    Cu24    Cu99      2.95889       1   0   0           -0.21867 
    309    Cu24   Zr100      3.06716       1   0   0           -0.64581 
    310    Cu25    Zr42      2.40823       0   0   0           -2.26429 
    311    Cu25    Cu43      3.42658       0   0   0           -0.03096 
    312    Cu25    Zr48      3.47868       0   0   0           -0.28517 
    313    Cu25    Cu49      2.75412       0   0   0           -0.33183 
    314    Cu25    Zr50      3.05958       0   0   0           -0.59202 
    315    Cu25    Cu78      4.07550       1  -1   0           -0.01071 
    316    Cu25    Zr97      3.10958       1   0   0           -0.47533 
    317    Zr26    Cu27      2.14802       0   0   0           -4.44291 
    318    Zr26    Cu28      2.85537       0   0   0           -0.95049 
    319    Zr26    Zr32      3.07443       0   0   1           -1.83696 
    320    Zr26    Zr33      4.01609       0   0   0           -0.22789 
    321    Zr26    Al34      2.88914       0   0   0           -1.98794 
    322    Zr26    Cu35      3.01198       0   0   0           -0.51423 
    323    Zr26    Cu36      4.02028       0   0   0           -0.02471 
    324    Zr26    Cu39      3.94039       0   0   0           -0.02529 
    325    Zr26    Zr46      3.67222       0   1   0           -0.72816 
    326    Zr26    Zr51      3.31861       0   0   0           -1.07964 
    327    Zr26    Cu53      2.74633       0   0   0           -0.94244 
    328    Zr26    Zr57      4.15666       0   0   0           -0.18308 
    329    Zr26    Cu69      4.01012       0   1   0           -0.17457 
    330    Cu27    Cu28      2.44606       0   0   0           -0.62730 
    331    Cu27    Zr32      3.77470       0   0   1           -0.15782 
    332    Cu27    Cu35      3.85797       0   0   0           -0.00998 
    333    Cu27    Zr46      2.66555       0   1   0           -1.31893 
    334    Cu27    Zr47      3.46685       0   1   0           -0.21991 
    335    Cu27    Zr51      3.27668       0   0   0           -0.34061 
    336    Cu27    Zr52      3.68111       0   0   0           -0.13070 
    337    Cu27    Cu53      2.45986       0   0   0           -0.54095 
    338    Cu27    Cu64      3.57228       0   1   0           -0.00774 
    339    Cu27    Cu68      3.70061       0   1   0           -0.01281 
    340    Cu27    Cu69      1.89666       0   1   0           -2.19370 
    341    Cu27    Zr70      2.86717       0   1   0           -0.81591 
    342    Cu27    Zr88      4.11988       0   1   0           -0.10742 
    343    Cu27    Cu95      3.90363       0   1   0           -0.00335 
    344    Cu28    Zr29      2.59026       0   0   0           -1.53193 
    345    Cu28    Cu35      3.61063       0   0   0           -0.02645 
    346    Cu28    Zr47      2.70834       0   1   0           -1.22652 
    347    Cu28    Zr48      2.65078       0   1   0           -1.36787 
    348    Cu28    Cu53      3.13071       0   0   0           -0.06866 
    349    Cu28    Zr54      4.06522       0   0   0           -0.06501 
    350    Cu28    Cu64      4.02973       0   1   0           -0.01447 
    351    Cu28    Cu69      3.72510       0   1   0           -0.00714 
    352    Cu28    Zr70      3.27557       0   1   0           -0.43190 
    353    Cu28    Cu71      3.93942       0   1   0           -0.03813 
    354    Zr29    Cu30      2.91395       0   0   0           -0.73925 
    355    Zr29    Cu35      3.37611       0   0   0           -0.39041 
    356    Zr29    Cu36      3.40270       0   0   0           -0.31296 
    357    Zr29    Zr48      2.76384       0   1   0           -3.71480 
    358    Zr29    Cu53      4.10088       0   0   0           -0.02545 
    359    Zr29    Zr54      3.51269       0   0   0           -0.84146 
    360    Zr29    Zr85      3.37829       1   0   0           -1.10710 
    361    Cu30    Zr31      2.35824       0   0   0           -2.63003 
    362    Cu30    Zr32      2.92174       0   0   0           -0.70107 
    363    Cu30    Zr37      3.25119       0   0   0           -0.36584 
    364    Cu30    Zr38      2.78434       0   0   0           -1.02420 
    365    Cu30    Zr48      3.62850       0   1   0           -0.18371 
    366    Cu30    Zr54      2.74079       0   0   0           -1.11309 
    367    Cu30    Zr55      3.98585       0   0   0           -0.08950 
    368    Cu30    Cu61      2.80716       0   0   0           -0.21122 
    369    Cu30    Cu72      3.67291       0   1   0           -0.04988 
    370    Zr31    Zr32      2.70604       0   0   0           -3.83281 
    371    Zr31    Zr46      3.03956       0   1  -1           -1.81357 
    372    Zr31    Zr48      3.34151       0   1   0           -1.06675 
    373    Zr31    Cu49      3.32109       0   1   0           -0.37815 
    374    Zr31    Zr51      3.78653       0   0  -1           -0.54823 
    375    Zr31    Zr54      3.46610       0   0   0           -0.97890 
    376    Zr31    Zr55      3.52126       0   0   0           -0.71284 
    377    Zr31    Cu61      3.52808       0   0   0           -0.19874 
    378    Zr31    Cu68      3.64687       0   1  -1           -0.16626 
    379    Zr31    Cu71      4.02501       0   1   0           -0.05845 
    380    Zr31    Cu72      2.59148       0   1   0           -1.52695 
    381    Zr31    Zr73      2.87075       0   1   0           -2.85465 
    382    Zr31    Cu74      2.74322       0   1   0           -1.10633 
    383    Zr31    Cu99      3.87132       0   1   0           -0.08569 
    384    Zr32    Zr38      3.91645       0   0   0           -0.43751 
    385    Zr32    Zr46      2.65623       0   1  -1           -4.34394 
    386    Zr32    Zr50      3.70219       0   1   0           -0.61162 
    387    Zr32    Zr51      3.68018       0   0  -1           -0.53321 
    388    Zr32    Cu61      4.14741       0   0   0           -0.04408 
    389    Zr32    Zr82      4.11976       1   0  -1           -0.30770 
    390    Zr33    Al34      2.92568       0   0   0           -1.80997 
    391    Zr33    Zr38      3.07642       0   0   1           -1.87509 
    392    Zr33    Cu39      2.31228       0   0   0           -2.52909 
    393    Zr33    Zr44      3.18700       0   0   1           -1.59385 
    394    Zr33    Cu45      3.87952       0   0   0           -0.10011 
    395    Zr33    Zr51      2.73461       0   0   0           -3.71172 
    396    Zr33    Cu56      3.35995       0   0   0           -0.32790 
    397    Zr33    Zr57      3.04164       0   0   0           -1.59472 
    398    Zr33    Zr60      3.20285       0   0   1           -1.49258 
    399    Zr33    Cu61      2.79416       0   0   1           -1.02297 
    400    Zr33    Zr62      3.51495       0   0   0           -0.77902 
    401    Zr33    Cu66      3.14896       0   0   1           -0.47698 
    402    Zr33    Cu67      3.90537       0   0   1           -0.08315 
    403    Zr33    Cu75      3.74842       0   0   0           -0.09354 
    404    Al34    Cu35      2.42469       0   0   0           -1.63861 
    405    Al34    Cu36      2.79828       0   0   0           -0.80814 
    406    Al34    Cu39      2.39067       0   0   0           -1.85581 
    407    Al34    Zr40      2.26694       0   0   0           -5.76506 
    408    Al34    Zr41      3.22474       0   0   0           -1.04170 
    409    Al34    Cu45      3.85371       0   0   0           -0.12278 