  COHP#  atomMU  atomNU     distance     translation      ICOHP (at) eF   for spin  1
      1     Cu1     Zr2      3.26092       0   0   0           -0.42192 
      2     Cu1     Cu3      2.51595       0   0   0           -0.44020 
      3     Cu1     Cu7      2.61443       0   0   1           -0.38018 
      4     Cu1     Cu8      2.42150       0   0   0           -0.58778 
      5     Cu1     Zr9      2.76879       0   0   0           -1.04687 
      6     Cu1    Cu10      2.63952       0   0   0           -0.30236 
      7     Cu1    Zr11      2.95002       0   0   0           -0.74676 
      8     Cu1    Cu15      4.13389       0   0   1           -0.00602 
      9     Cu1    Zr26      2.77311       0   0   0           -1.02718 
     10     Cu1    Zr32      3.23785       0   0   1           -0.40494 
     11     Cu1    Al34      4.09759       0   0   0           -0.02109 
     12     Cu1    Zr76      2.96093       1   0   0           -0.71604 
     13     Cu1    Zr82      2.51873       1   0   0           -1.73642 
     14     Zr2     Cu3      2.85304       0   0   0           -0.92474 
     15     Zr2     Cu7      3.28255       0   0   1           -0.38554 
     16     Zr2    Cu21      3.68979       0   1   0           -0.15555 
     17     Zr2    Cu22      2.63801       0   1   0           -1.66471 
     18     Zr2    Zr23      3.33318       0   1   0           -1.15238 
     19     Zr2    Zr26      3.24720       0   0   0           -1.41348 
     20     Zr2    Cu27      3.05055       0   0   0           -0.60743 
     21     Zr2    Cu28      2.99912       0   0   0           -0.64147 
     22     Zr2    Zr32      3.35783       0   0   1           -1.06716 
     23     Zr2    Cu45      2.82458       0   1   0           -0.93803 
     24     Zr2    Zr46      3.05469       0   1   0           -1.92514 
     25     Zr2    Zr47      3.26206       0   1   0           -1.29840 
     26     Zr2    Zr50      3.40368       0   1   1           -0.95657 
     27     Zr2    Zr76      3.09007       1   0   0           -1.82922 
     28     Cu3     Cu4      3.34673       0   0   0           -0.07139 
     29     Cu3     Zr9      2.86843       0   0   0           -0.83664 
     30     Cu3    Cu10      2.42162       0   0   0           -0.69096 
     31     Cu3    Cu22      4.02691       0   1   0           -0.01419 
     32     Cu3    Zr23      2.73634       0   1   0           -1.22004 
     33     Cu3    Zr26      3.07257       0   0   0           -0.61234 
     34     Cu3    Cu28      2.47640       0   0   0           -0.58396 
     35     Cu3    Zr29      2.96197       0   0   0           -0.73745 
     36     Cu3    Cu35      3.96097       0   0   0           -0.00331 
     37     Cu3    Zr76      2.96624       1   0   0           -0.67997 
     38     Cu3    Cu78      2.81160       1   0   0           -0.31674 
     39     Cu3    Zr85      4.06497       1   0   0           -0.06789 
     40     Cu4     Zr5      2.73408       0   0   0           -1.12156 
     41     Cu4     Cu6      2.64314       0   0   0           -0.39900 
     42     Cu4    Zr13      3.52529       0   0   0           -0.24110 
     43     Cu4    Zr23      2.70430       0   1   0           -1.24247 
     44     Cu4    Cu24      4.03790       0   1   0           -0.00086 
     45     Cu4    Cu25      2.65332       0   1   0           -0.34906 
     46     Cu4    Cu28      4.05433       0   0   0           -0.00734 
     47     Cu4    Zr29      2.77540       0   0   0           -1.19191 
     48     Cu4    Zr48      3.64337       0   1   0           -0.19863 
     49     Cu4    Cu78      2.51793       1   0   0           -0.51758 
     50     Cu4    Zr79      3.38188       1   0   0           -0.28318 
     51     Cu4    Cu80      4.07687       1   0   0           -0.01809 
     52     Cu4    Zr85      2.87707       1   0   0           -0.86862 
     53     Cu4    Zr97      2.73532       1   1   0           -1.12243 
     54     Zr5     Cu6      3.01339       0   0   0           -0.68719 
     55     Zr5     Cu7      2.75858       0   0   0           -0.99636 
     56     Zr5    Zr13      3.01669       0   0   0           -2.13969 
     57     Zr5    Cu21      2.64176       0   1  -1           -1.39869 
     58     Zr5    Cu24      2.77186       0   1   0           -1.09075 
     59     Zr5    Cu25      3.21693       0   1   0           -0.45552 
     60     Zr5    Zr50      3.46568       0   1   0           -0.91708 
     61     Zr5    Zr55      4.09140       1   0   0           -0.31871 
     62     Zr5    Zr79      3.37096       1   0   0           -1.08898 
     63     Zr5    Cu80      2.70260       1   0   0           -1.22921 
     64     Zr5    Zr81      2.93096       1   0   0           -2.41260 
     65     Zr5    Zr85      3.94126       1   0   0           -0.42117 
     66     Zr5    Zr97      3.25190       1   1   0           -1.34682 
     67     Zr5    Cu99      2.96020       1   1   0           -0.70123 
     68     Zr5   Zr100      3.91098       1   1   0           -0.44678 
     69     Cu6     Cu7      3.47194       0   0   0           -0.07732 
     70     Cu6    Zr13      2.79270       0   0   0           -0.99670 
     71     Cu6    Cu24      4.11016       0   1   0           -0.00415 
     72     Cu6    Cu25      2.57780       0   1   0           -0.41251 
     73     Cu6    Zr29      3.04233       0   0   0           -0.62006 
     74     Cu6    Cu30      2.36927       0   0   0           -0.66234 
     75     Cu6    Zr31      2.97382       0   0   0           -0.65849 
     76     Cu6    Zr32      3.17399       0   0   0           -0.42406 
     77     Cu6    Zr48      2.76254       0   1   0           -1.17194 
     78     Cu6    Cu49      3.40584       0   1   0           -0.03707 
     79     Cu6    Zr50      2.80895       0   1   0           -1.03841 
     80     Cu6    Zr54      4.00480       0   0   0           -0.08497 
     81     Cu7     Cu8      3.56751       0   0  -1           -0.03429 
     82     Cu7    Zr13      2.85966       0   0   0           -0.90479 
     83     Cu7    Cu21      2.36741       0   1  -1           -0.68888 
     84     Cu7    Zr32      2.68189       0   0   0           -1.35489 
     85     Cu7    Zr50      2.97131       0   1   0           -0.68205 
     86     Cu7    Zr76      2.93400       1   0  -1           -0.75625 
     87     Cu7    Cu80      3.80632       1   0   0           -0.02884 
     88     Cu7    Zr81      3.00513       1   0   0           -0.56749 
     89     Cu7    Zr82      2.78256       1   0  -1           -1.06240 
     90     Cu8    Cu10      3.61891       0   0   0            0.00366 
     91     Cu8    Zr11      2.66203       0   0   0           -1.36062 
     92     Cu8    Zr13      3.50924       0   0   1           -0.30164 
     93     Cu8    Cu15      2.71253       0   0   1           -0.35157 
     94     Cu8    Zr26      2.92147       0   0   0           -0.67579 
     95     Cu8    Cu30      4.12345       0   0   1           -0.01255 
     96     Cu8    Zr32      2.71727       0   0   1           -1.26403 
     97     Cu8    Zr33      2.98951       0   0   0           -0.60066 
     98     Cu8    Al34      3.18073       0   0   0           -0.45366 
     99     Cu8    Zr38      2.83678       0   0   1           -1.00323 
    100     Cu8    Cu39      2.41373       0   0   0           -0.50054 
    101     Cu8    Zr82      3.24375       1   0   0           -0.41407 
    102     Zr9    Cu10      2.89489       0   0   0           -0.93671 
    103     Zr9    Zr11      3.33340       0   0   0           -1.04544 
    104     Zr9    Zr12      3.23948       0   0   0           -1.39324 
    105     Zr9    Zr52      3.70418       1   0   0           -0.59092 
    106     Zr9    Cu75      3.13848       1   0   0           -0.45753 
    107     Zr9    Zr76      3.26445       1   0   0           -1.32567 
    108     Zr9    Zr77      3.09412       1   0   0           -1.71143 
    109     Zr9    Cu78      2.72659       1   0   0           -1.24120 
    110     Zr9    Zr82      3.34487       1   0   0           -1.06537 
    111     Zr9    Zr83      2.80909       1   0   0           -3.14324 
    112     Zr9    Cu84      3.56355       1   0   0           -0.20983 
    113     Zr9    Zr85      3.36585       1   0   0           -1.08266 
    114    Cu10    Zr11      2.98584       0   0   0           -0.60722 
    115    Cu10    Zr12      3.00348       0   0   0           -0.73984 
    116    Cu10    Zr26      2.76303       0   0   0           -0.97405 
    117    Cu10    Cu28      3.65751       0   0   0           -0.01485 
    118    Cu10    Zr29      2.93706       0   0   0           -0.86672 
    119    Cu10    Al34      2.75799       0   0   0           -0.95807 
    120    Cu10    Cu35      2.69833       0   0   0           -0.25261 
    121    Cu10    Cu36      2.43290       0   0   0           -0.46373 
    122    Cu10    Zr40      3.84035       0   0   0           -0.07567 
    123    Cu10    Zr85      4.04772       1   0   0           -0.09990 
    124    Zr11    Zr12      3.38933       0   0   0           -0.76148 
    125    Zr11    Cu15      2.86967       0   0   1           -0.83736 
    126    Zr11    Zr16      3.30145       0   0   0           -1.01846 
    127    Zr11    Al34      3.46598       0   0   0           -0.87922 
    128    Zr11    Cu36      4.08576       0   0   0           -0.03715 
    129    Zr11    Cu39      2.80912       0   0   0           -0.94226 
    130    Zr11    Zr40      3.17231       0   0   0           -1.23192 
    131    Zr11    Zr82      2.99485       1   0   0           -2.20764 
    132    Zr11    Zr83      3.23600       1   0   0           -1.04566 
    133    Zr11    Zr87      3.11714       1   0   0           -1.51064 
    134    Zr11    Al89      2.78516       1   0   0           -2.13235 
    135    Zr12    Zr14      3.14881       0   0   0           -1.66847 
    136    Zr12    Cu17      2.86581       0   0   0           -0.65532 
    137    Zr12    Cu18      2.99888       0   0   0           -0.68678 
    138    Zr12    Cu36      2.66292       0   0   0           -1.32017 
    139    Zr12    Zr40      3.35914       0   0   0           -0.91382 
    140    Zr12    Zr42      3.85716       0   0   0           -0.45315 
    141    Zr12    Zr83      3.30990       1   0   0           -0.94155 
    142    Zr12    Cu84      3.12065       1   0   0           -0.49565 
    143    Zr12    Zr85      3.28595       1   0   0           -1.29545 
    144    Zr12    Al89      3.06531       1   0   0           -1.52536 
    145    Zr12    Zr90      3.06696       1   0   0           -1.66168 
    146    Zr12    Cu91      3.03828       1   0   0           -0.64224 
    147    Zr13    Zr14      3.10354       0   0   0           -1.76824 
    148    Zr13    Cu15      3.14203       0   0   0           -0.53252 
    149    Zr13    Zr29      3.57091       0   0   0           -0.76156 
    150    Zr13    Cu30      2.90576       0   0   0           -0.82001 
    151    Zr13    Zr32      3.35506       0   0   0           -1.10215 
    152    Zr13    Zr38      3.41304       0   0   0           -0.99697 
    153    Zr13    Cu80      2.97546       1   0   0           -0.66429 
    154    Zr13    Zr82      3.31020       1   0  -1           -1.21178 
    155    Zr13    Zr85      3.25722       1   0   0           -1.35481 
    156    Zr13    Cu86      2.67902       1   0   0           -1.30992 
    157    Zr14    Cu15      3.38880       0   0   0           -0.31203 
    158    Zr14    Cu18      2.90095       0   0   0           -0.79909 
    159    Zr14    Zr19      3.03596       0   0   0           -1.94968 
    160    Zr14    Cu20      3.38451       0   0   0           -0.31588 
    161    Zr14    Zr29      3.41039       0   0   0           -1.00161 
    162    Zr14    Cu30      3.83498       0   0   0           -0.12574 
    163    Zr14    Cu36      2.84391       0   0   0           -0.98283 
    164    Zr14    Zr37      3.25686       0   0   0           -1.18151 
    165    Zr14    Zr38      2.95933       0   0   0           -2.39537 
    166    Zr14    Zr42      3.35884       0   0   0           -1.01254 
    167    Zr14    Cu43      3.94886       0   0   0           -0.08611 
    168    Zr14    Zr85      3.25668       1   0   0           -1.35817 
    169    Zr14    Cu86      3.15895       1   0   0           -0.49666 
    170    Zr14    Cu91      3.08956       1   0   0           -0.62337 
    171    Cu15    Zr16      2.85491       0   0  -1           -0.84948 
    172    Cu15    Zr19      3.22858       0   0   0           -0.44243 
    173    Cu15    Cu20      2.63415       0   0   0           -0.36683 
    174    Cu15    Zr38      2.83649       0   0   0           -0.87877 
    175    Cu15    Cu39      3.10557       0   0  -1           -0.16227 
    176    Cu15    Zr82      2.92422       1   0  -1           -0.72708 
    177    Cu15    Cu86      2.35010       1   0   0           -0.73272 
    178    Cu15    Zr87      2.80240       1   0  -1           -0.87784 
    179    Zr16    Zr19      3.13817       0   0   1           -1.74769 
    180    Zr16    Cu20      3.17805       0   0   1           -0.51316 
    181    Zr16    Cu21      2.85615       0   0   0           -0.93105 
    182    Zr16    Cu22      2.93572       0   0   0           -0.63340 
    183    Zr16    Cu24      3.11381       0   0   1           -0.54473 
    184    Zr16    Cu39      3.09938       0   0   0           -0.61297 
    185    Zr16    Zr40      3.92281       0   0   0           -0.32970 
    186    Zr16    Zr44      3.87976       0   0   1           -0.49055 
    187    Zr16    Cu45      2.80896       0   0   0           -1.01196 
    188    Zr16    Zr50      3.23286       0   0   1           -1.44727 
    189    Zr16    Zr87      3.06173       1   0   0           -1.74308 
    190    Zr16    Al89      3.18352       1   0   0           -1.27064 
    191    Zr16    Cu94      2.72684       1   0   0           -1.01083 
    192    Zr16   Zr100      3.50046       1   0   1           -0.87337 
    193    Cu17    Cu18      2.52380       0   0   0           -0.51541 
    194    Cu17    Cu22      2.67871       0   0   0           -0.15070 
    195    Cu17    Zr23      2.60705       0   0   0           -1.56444 
    196    Cu17    Cu25      3.79705       0   0   0           -0.01375 
    197    Cu17    Cu36      3.93933       0   0   0           -0.01325 
    198    Cu17    Zr40      2.79303       0   0   0           -0.90399 
    199    Cu17    Zr42      2.98227       0   0   0           -0.73310 
    200    Cu17    Al89      2.46130       1   0   0           -1.49743 
    201    Cu17    Zr90      2.78947       1   0   0           -0.83030 
    202    Cu17    Cu94      3.98577       1   0   0           -0.00045 
    203    Cu17    Zr96      3.03625       1   0   0           -0.45631 
    204    Cu17    Zr97      2.92385       1   0   0           -0.87582 
    205    Cu18    Zr19      2.91405       0   0   0           -0.81843 
    206    Cu18    Cu20      2.61109       0   0   0           -0.43197 
    207    Cu18    Zr23      4.09209       0   0   0           -0.05561 
    208    Cu18    Cu24      2.79726       0   0   0           -0.23055 
    209    Cu18    Cu25      3.08238       0   0   0           -0.10855 
    210    Cu18    Cu36      3.99096       0   0   0           -0.01359 
    211    Cu18    Zr42      2.78104       0   0   0           -0.95596 
    212    Cu18    Cu86      4.14529       1   0   0           -0.00450 
    213    Cu18    Zr90      3.00676       1   0   0           -0.72983 
    214    Cu18    Cu91      2.61245       1   0   0           -0.43622 
    215    Cu18    Cu92      2.83191       1   0   0           -0.25821 
    216    Cu18    Zr97      2.72421       1   0   0           -1.20045 
    217    Zr19    Cu20      2.93998       0   0   0           -0.73170 
    218    Zr19    Cu24      2.66435       0   0   0           -1.27087 
    219    Zr19    Cu25      2.84276       0   0   0           -0.86224 
    220    Zr19    Zr38      3.03638       0   0   0           -1.91305 
    221    Zr19    Cu39      4.00919       0   0  -1           -0.10223 
    222    Zr19    Zr42      2.93448       0   0   0           -2.44719 
    223    Zr19    Cu43      3.00683       0   0   0           -0.59536 
    224    Zr19    Zr44      3.10116       0   0   0           -1.75704 
    225    Zr19    Cu49      2.75757       0   0   0           -1.03019 
    226    Zr19    Zr50      3.22053       0   0   0           -1.41491 
    227    Cu20    Cu24      2.43332       0   0   0           -0.59268 
    228    Cu20    Cu86      2.49161       1   0   0           -0.50387 
    229    Cu20    Zr87      2.91827       1   0  -1           -0.82464 
    230    Cu20    Cu91      2.56888       1   0   0           -0.45440 
    231    Cu20    Cu92      2.51464       1   0   0           -0.46624 
    232    Cu20    Cu93      2.57903       1   0   0           -0.44008 
    233    Cu20    Zr97      4.18450       1   0   0           -0.03912 
    234    Cu20   Zr100      2.89441       1   0   0           -0.85187 
    235    Cu21    Cu22      3.34817       0   0   0           -0.08337 
    236    Cu21    Cu24      2.66313       0   0   1           -0.35714 
    237    Cu21    Cu45      4.16642       0   0   0           -0.00645 
    238    Cu21    Zr50      2.64558       0   0   1           -1.40686 
    239    Cu21    Zr76      2.90207       1  -1   0           -0.77203 
    240    Cu21    Zr81      2.86112       1  -1   1           -0.85436 
    241    Cu21    Cu94      2.56598       1   0   0           -0.54031 
    242    Cu21    Cu95      3.30007       1   0   0           -0.04824 
    243    Cu21    Cu99      3.91723       1   0   1           -0.01020 
    244    Cu21   Zr100      2.91350       1   0   1           -0.79452 
    245    Cu22    Zr23      2.90654       0   0   0           -0.82877 
    246    Cu22    Zr40      2.88219       0   0   0           -0.67968 
    247    Cu22    Cu45      2.92610       0   0   0           -0.24644 
    248    Cu22    Zr47      3.83653       0   0   0           -0.14862 
    249    Cu22    Zr76      2.82846       1  -1   0           -1.04005 
    250    Cu22    Al89      2.45658       1   0   0           -1.65599 
    251    Cu22    Cu94      2.36607       1   0   0           -0.43657 
    252    Cu22    Zr96      3.26076       1   0   0           -0.30033 
    253    Zr23    Cu25      3.00501       0   0   0           -0.72741 
    254    Zr23    Cu28      2.91772       0  -1   0           -0.74554 
    255    Zr23    Zr29      3.95492       0  -1   0           -0.43239 
    256    Zr23    Zr40      3.85605       0   0   0           -0.50656 
    257    Zr23    Zr42      3.38950       0   0   0           -1.00027 
    258    Zr23    Zr47      3.27211       0   0   0           -1.24865 
    259    Zr23    Zr48      3.25729       0   0   0           -1.32589 
    260    Zr23    Zr76      3.78377       1  -1   0           -0.54282 
    261    Zr23    Cu78      3.15857       1  -1   0           -0.53805 
    262    Zr23    Zr96      3.74632       1   0   0           -0.56360 
    263    Zr23    Zr97      3.13166       1   0   0           -1.62328 
    264    Cu24    Cu25      2.48746       0   0   0           -0.54480 
    265    Cu24    Zr50      3.07874       0   0   0           -0.55239 
    266    Cu24    Cu92      2.85138       1   0   0           -0.23913 
    267    Cu24    Zr97      2.84337       1   0   0           -0.96174 
    268    Cu24    Cu99      3.25377       1   0   0           -0.07304 
    269    Cu24   Zr100      2.73206       1   0   0           -1.13383 
    270    Cu25    Zr42      2.80973       0   0   0           -0.98374 
    271    Cu25    Zr48      2.83856       0   0   0           -0.97678 
    272    Cu25    Cu49      2.78663       0   0   0           -0.31596 
    273    Cu25    Zr50      3.05400       0   0   0           -0.60485 
    274    Cu25    Zr97      2.81518       1   0   0           -0.92356 
    275    Zr26    Cu27      2.72814       0   0   0           -1.17659 
    276    Zr26    Cu28      2.84448       0   0   0           -0.95752 
    277    Zr26    Zr32      3.04595       0   0   1           -1.96782 
    278    Zr26    Zr33      3.50347       0   0   0           -0.65219 
    279    Zr26    Al34      2.81993       0   0   0           -2.30723 
    280    Zr26    Cu35      2.91034       0   0   0           -0.70593 
    281    Zr26    Zr46      4.17909       0   1   0           -0.33162 
    282    Zr26    Zr51      3.36414       0   0   0           -1.06373 
    283    Zr26    Cu53      2.81369       0   0   0           -0.90708 
    284    Zr26    Zr57      3.30065       0   0   0           -1.10760 
    285    Cu27    Cu28      2.45694       0   0   0           -0.54609 
    286    Cu27    Zr32      4.05865       0   0   1           -0.07762 
    287    Cu27    Zr46      2.62319       0   1   0           -1.42784 
    288    Cu27    Zr47      3.01431       0   1   0           -0.62798 
    289    Cu27    Zr51      2.98834       0   0   0           -0.68899 
    290    Cu27    Zr52      3.10443       0   0   0           -0.55623 
    291    Cu27    Cu53      2.31258       0   0   0           -0.73011 
    292    Cu27    Zr57      4.00488       0   0   0           -0.08179 
    293    Cu27    Cu69      2.42052       0   1   0           -0.69035 
    294    Cu27    Zr70      2.99943       0   1   0           -0.66023 
    295    Cu27    Cu95      4.19828       0   1   0           -0.00118 
    296    Cu28    Zr29      2.95012       0   0   0           -0.75497 
    297    Cu28    Cu35      3.26004       0   0   0           -0.09574 
    298    Cu28    Zr47      2.98127       0   1   0           -0.66757 
    299    Cu28    Zr48      2.75797       0   1   0           -1.16695 
    300    Cu28    Cu53      2.45940       0   0   0           -0.54260 
    301    Cu28    Zr54      3.60079       0   0   0           -0.23238 
    302    Cu28    Zr70      3.42404       0   1   0           -0.30661 
    303    Zr29    Cu30      2.86484       0   0   0           -0.89706 
    304    Zr29    Cu35      2.82400       0   0   0           -1.08503 
    305    Zr29    Cu36      3.32238       0   0   0           -0.39042 
    306    Zr29    Zr37      3.39906       0   0   0           -0.99999 
    307    Zr29    Zr48      3.41453       0   1   0           -1.00232 
    308    Zr29    Cu53      4.01253       0   0   0           -0.06366 
    309    Zr29    Zr54      3.34143       0   0   0           -1.16402 
    310    Zr29    Cu78      4.11409       1   0   0           -0.06273 
    311    Zr29    Zr85      3.31841       1   0   0           -1.26520 
    312    Cu30    Zr31      2.91660       0   0   0           -0.80838 
    313    Cu30    Zr32      2.89218       0   0   0           -0.85336 
    314    Cu30    Zr37      2.91577       0   0   0           -0.74780 
    315    Cu30    Zr38      3.00885       0   0   0           -0.67482 
    316    Cu30    Zr48      3.74821       0   1   0           -0.13231 
    317    Cu30    Zr54      2.78451       0   0   0           -1.04970 
    318    Cu30    Zr55      4.05305       0   0   0           -0.08178 
    319    Cu30    Cu61      2.31942       0   0   0           -0.77000 
    320    Zr31    Zr32      3.07498       0   0   0           -1.80520 
    321    Zr31    Zr46      3.05752       0   1  -1           -1.91869 
    322    Zr31    Zr48      3.20967       0   1   0           -1.42758 
    323    Zr31    Cu49      2.83441       0   1   0           -0.94776 
    324    Zr31    Zr50      3.42101       0   1   0           -0.97597 
    325    Zr31    Zr51      3.48715       0   0  -1           -0.82436 
    326    Zr31    Zr54      3.35012       0   0   0           -1.01261 
    327    Zr31    Zr55      2.77966       0   0   0           -3.23547 
    328    Zr31    Cu61      3.26584       0   0   0           -0.36266 
    329    Zr31    Cu72      2.73930       0   1   0           -1.08209 
    330    Zr31    Zr73      3.56394       0   1   0           -0.77048 
    331    Zr31    Cu74      2.88262       0   1   0           -0.77720 
    332    Zr31    Cu99      4.05472       0   1   0           -0.08218 
    333    Zr32    Zr33      3.82465       0   0  -1           -0.48608 
    334    Zr32    Zr38      3.93591       0   0   0           -0.44890 
    335    Zr32    Zr46      3.30393       0   1  -1           -1.14130 
    336    Zr32    Zr50      3.23040       0   1   0           -1.40089 
    337    Zr32    Zr51      3.27397       0   0  -1           -1.23221 
    338    Zr32    Cu61      3.43322       0   0   0           -0.27476 
    339    Zr33    Al34      2.99451       0   0   0           -1.69230 
    340    Zr33    Zr38      3.08871       0   0   1           -1.90957 
    341    Zr33    Cu39      2.74660       0   0   0           -0.92515 
    342    Zr33    Zr44      3.57952       0   0   1           -0.75916 
    343    Zr33    Zr51      3.26012       0   0   0           -1.36462 
    344    Zr33    Cu56      2.77786       0   0   0           -1.07584 
    345    Zr33    Zr57      3.19394       0   0   0           -1.32558 
    346    Zr33    Zr60      3.21185       0   0   1           -1.39812 
    347    Zr33    Cu61      2.93528       0   0   1           -0.86150 
    348    Zr33    Zr62      3.42460       0   0   0           -0.84660 
    349    Zr33    Cu66      3.01139       0   0   1           -0.74990 
    350    Zr33    Cu67      3.13015       0   0   1           -0.55696 
    351    Zr33    Cu75      4.16086       0   0   0           -0.05456 
    352    Al34    Cu35      2.58343       0   0   0           -1.32735 
    353    Al34    Cu36      2.83467       0   0   0           -0.83216 
    354    Al34    Cu39      2.58302       0   0   0           -1.32542 
    355    Al34    Zr40      2.85853       0   0   0           -2.13560 
    356    Al34    Zr41      2.95234       0   0   0           -1.82821 
    357    Al34    Cu53      4.09911       0   0   0           -0.05374 
    358    Al34    Cu56      4.07610       0   0   0           -0.04767 
    359    Al34    Zr57      3.00097       0   0   0           -1.74615 
    360    Al34    Cu58      4.10163       0   0   0           -0.04100 
    361    Al34    Zr62      3.07353       0   0   0           -1.47481 
    362    Al34    Cu63      3.81932       0   0   0           -0.11890 
    363    Cu35    Cu36      2.54777       0   0   0           -0.31866 
    364    Cu35    Zr37      2.83286       0   0   0           -1.01858 
    365    Cu35    Zr41      3.05919       0   0   0           -0.44403 
    366    Cu35    Cu53      2.41580       0   0   0           -0.62550 
    367    Cu35    Zr54      3.12920       0   0   0           -0.65148 
    368    Cu35    Zr57      2.98628       0   0   0           -0.52504 
    369    Cu35    Cu58      2.52551       0   0   0           -0.48931 
    370    Cu35    Cu63      4.02807       0   0   0           -0.00178 
    371    Cu36    Zr37      2.98234       0   0   0           -0.72288 
    372    Cu36    Zr40      2.74871       0   0   0           -0.83763 
    373    Cu36    Zr41      2.66303       0   0   0           -1.04286 
    374    Cu36    Zr42      2.87442       0   0   0           -0.82851 
    375    Cu36    Cu43      4.05168       0   0   0           -0.01657 
    376    Zr37    Zr38      3.01560       0   0   0           -1.94546 
    377    Zr37    Zr41      3.03307       0   0   0           -1.94516 
    378    Zr37    Zr42      3.94294       0   0   0           -0.39466 
    379    Zr37    Cu43      2.67692       0   0   0           -1.20690 
    380    Zr37    Zr54      3.11168       0   0   0           -1.68164 
    381    Zr37    Cu58      2.74139       0   0   0           -1.03708 
    382    Zr37    Zr59      3.74252       0   0   0           -0.57688 
    383    Zr37    Cu61      3.11257       0   0   0           -0.58254 
    384    Zr37    Zr65      3.31222       0   0   0           -1.21352 
    385    Zr37    Cu66      2.97017       0   0   0           -0.66746 
    386    Zr38    Cu39      2.98532       0   0  -1           -0.73794 
    387    Zr38    Cu43      3.22398       0   0   0           -0.39624 
    388    Zr38    Zr44      3.25452       0   0   0           -1.32309 
    389    Zr38    Cu61      3.10664       0   0   0           -0.57717 
    390    Zr38    Cu66      2.97877       0   0   0           -0.71729 
    391    Cu39    Zr40      3.11691       0   0   0           -0.40183 
    392    Cu39    Zr44      2.76133       0   0   1           -1.16890 
    393    Cu39    Cu45      2.67981       0   0   0           -0.35290 
    394    Cu39    Zr62      3.11788       0   0   0           -0.44090 
    395    Zr40    Zr41      3.26710       0   0   0           -1.12030 
    396    Zr40    Zr42      3.16606       0   0   0           -1.54309 
    397    Zr40    Cu45      2.92019       0   0   0           -0.76047 
    398    Zr40    Zr47      2.96097       0   0   0           -2.47030 
    399    Zr40    Zr62      3.53925       0   0   0           -0.63960 
    400    Zr40    Al89      3.09078       1   0   0           -1.52679 
    401    Zr41    Zr42      3.10630       0   0   0           -1.70281 
    402    Zr41    Cu43      3.20987       0   0   0           -0.47863 
    403    Zr41    Zr47      3.33550       0   0   0           -1.09080 
    404    Zr41    Zr57      3.87464       0   0   0           -0.39205 
    405    Zr41    Cu58      2.93498       0   0   0           -0.71343 
    406    Zr41    Zr62      3.36924       0   0   0           -0.93735 
    407    Zr41    Cu63      2.64658       0   0   0           -1.35772 
    408    Zr41    Cu64      3.01685       0   0   0           -0.67315 
    409    Zr41    Zr65      3.17933       0   0   0           -1.55301 