  COHP#  atomMU  atomNU     distance     translation      ICOHP (at) eF   for spin  1
      1     Cu1     Zr2      3.31643       0   0   0           -0.38562 
      2     Cu1     Cu3      2.81798       0   0   0           -0.20325 
      3     Cu1     Cu7      2.93135       0   0   1           -0.15751 
      4     Cu1     Cu8      2.12417       0   0   0           -1.05814 
      5     Cu1     Zr9      2.17692       0   0   0           -3.87077 
      6     Cu1    Cu10      3.10670       0   0   0           -0.06662 
      7     Cu1    Zr11      2.94326       0   0   0           -0.72799 
      8     Cu1    Zr26      3.08518       0   0   0           -0.53742 
      9     Cu1    Zr32      2.59401       0   0   1           -1.54718 
     10     Cu1    Zr76      2.85208       1   0   0           -0.86842 
     11     Cu1    Cu78      3.78808       1   0   0           -0.01831 
     12     Cu1    Zr82      3.08615       1   0   0           -0.46579 
     13     Zr2     Cu3      2.63155       0   0   0           -1.47612 
     14     Zr2     Cu7      3.99408       0   0   1           -0.07173 
     15     Zr2    Cu22      2.46511       0   1   0           -2.34558 
     16     Zr2    Zr23      3.14076       0   1   0           -1.63331 
     17     Zr2    Zr26      3.33128       0   0   0           -1.14068 
     18     Zr2    Cu27      3.38744       0   0   0           -0.28714 
     19     Zr2    Cu28      3.65446       0   0   0           -0.11165 
     20     Zr2    Zr32      3.23021       0   0   1           -1.36267 
     21     Zr2    Cu45      2.74226       0   1   0           -0.96578 
     22     Zr2    Zr46      2.43220       0   1   0           -7.37935 
     23     Zr2    Zr47      3.87097       0   1   0           -0.40218 
     24     Zr2    Zr50      3.78130       0   1   1           -0.40003 
     25     Zr2    Zr76      3.02918       1   0   0           -2.05137 
     26     Zr2    Cu78      3.88740       1   0   0           -0.11829 
     27     Cu3     Cu4      3.23665       0   0   0           -0.11384 
     28     Cu3     Zr9      3.01770       0   0   0           -0.60375 
     29     Cu3    Cu10      2.42095       0   0   0           -0.75907 
     30     Cu3    Cu22      4.19237       0   1   0           -0.01051 
     31     Cu3    Zr23      2.78237       0   1   0           -1.12287 
     32     Cu3    Zr26      2.50124       0   0   0           -1.90937 
     33     Cu3    Cu27      3.71053       0   0   0           -0.01620 
     34     Cu3    Cu28      2.73673       0   0   0           -0.30649 
     35     Cu3    Zr29      3.57271       0   0   0           -0.19895 
     36     Cu3    Zr76      3.60883       1   0   0           -0.15464 
     37     Cu3    Cu78      2.29345       1   0   0           -1.03127 
     38     Cu3    Zr85      3.46736       1   0   0           -0.22297 
     39     Cu4     Zr5      2.48860       0   0   0           -1.96080 
     40     Cu4     Cu6      3.33235       0   0   0           -0.03312 
     41     Cu4    Zr13      3.86045       0   0   0           -0.11415 
     42     Cu4    Zr23      2.53354       0   1   0           -1.73705 
     43     Cu4    Cu24      3.98555       0   1   0            0.00457 
     44     Cu4    Cu25      2.87170       0   1   0           -0.20266 
     45     Cu4    Cu28      3.14174       0   0   0           -0.13681 
     46     Cu4    Zr29      2.58758       0   0   0           -1.68959 
     47     Cu4    Zr48      3.60873       0   1   0           -0.17963 
     48     Cu4    Cu78      3.17599       1   0   0           -0.07344 
     49     Cu4    Zr79      3.31925       1   0   0           -0.34287 
     50     Cu4    Cu80      3.40281       1   0   0           -0.08717 
     51     Cu4    Zr85      2.90625       1   0   0           -0.79660 
     52     Cu4    Zr97      2.75551       1   1   0           -0.98949 
     53     Cu4    Cu99      3.72970       1   1   0           -0.03440 
     54     Zr5     Cu6      2.70381       0   0   0           -1.27172 
     55     Zr5     Cu7      3.38583       0   0   0           -0.24327 
     56     Zr5    Zr13      3.04840       0   0   0           -1.90753 
     57     Zr5    Cu21      2.93707       0   1  -1           -0.73893 
     58     Zr5    Cu24      2.77181       0   1   0           -1.00666 
     59     Zr5    Cu25      2.76613       0   1   0           -0.97076 
     60     Zr5    Zr29      4.03094       0   0   0           -0.39363 
     61     Zr5    Zr48      4.18230       0   1   0           -0.36580 
     62     Zr5    Zr50      4.03497       0   1   0           -0.33453 
     63     Zr5    Zr55      4.06684       1   0   0           -0.29580 
     64     Zr5    Cu74      3.69267       1   1   0           -0.15849 
     65     Zr5    Cu80      2.68788       1   0   0           -1.09046 
     66     Zr5    Zr81      2.38085       1   0   0           -8.28143 
     67     Zr5    Zr85      4.18937       1   0   0           -0.34169 
     68     Zr5    Cu95      4.03538       1   1  -1           -0.16280 
     69     Zr5    Zr97      3.63339       1   1   0           -0.69769 
     70     Zr5    Cu99      3.14033       1   1   0           -0.48316 
     71     Zr5   Zr100      3.59876       1   1   0           -0.80385 
     72     Cu6     Cu7      2.97165       0   0   0           -0.20130 
     73     Cu6    Zr13      2.60766       0   0   0           -1.40377 
     74     Cu6    Cu21      3.55090       0   1  -1           -0.02117 
     75     Cu6    Cu24      3.91774       0   1   0           -0.00560 
     76     Cu6    Cu25      2.74023       0   1   0           -0.24190 
     77     Cu6    Zr29      3.20579       0   0   0           -0.41566 
     78     Cu6    Cu30      2.40864       0   0   0           -0.60803 
     79     Cu6    Zr31      3.41410       0   0   0           -0.24563 
     80     Cu6    Zr32      3.76992       0   0   0           -0.10650 
     81     Cu6    Zr48      2.31901       0   1   0           -2.91425 
     82     Cu6    Cu49      3.44607       0   1   0           -0.05052 
     83     Cu6    Zr50      2.91211       0   1   0           -0.76499 
     84     Cu6    Zr54      3.30737       0   0   0           -0.35800 
     85     Cu6    Cu72      4.17831       0   1   0           -0.01009 
     86     Cu7     Cu8      3.75103       0   0  -1           -0.00103 
     87     Cu7    Zr13      2.93551       0   0   0           -0.67634 
     88     Cu7    Cu21      2.38273       0   1  -1           -0.59787 
     89     Cu7    Cu30      3.58219       0   0   0           -0.02775 
     90     Cu7    Zr31      4.12157       0   0   0           -0.08683 
     91     Cu7    Zr32      2.61939       0   0   0           -1.53919 
     92     Cu7    Zr50      2.75166       0   1   0           -1.03018 
     93     Cu7    Zr52      4.12942       1   0  -1           -0.06004 
     94     Cu7    Cu75      3.98478       1   0  -1           -0.02361 
     95     Cu7    Zr76      2.59378       1   0  -1           -1.55339 
     96     Cu7    Zr81      3.05748       1   0   0           -0.53130 
     97     Cu7    Zr82      2.64039       1   0  -1           -1.40587 
     98     Cu7    Cu94      4.17004       1   1  -1           -0.01046 
     99     Cu7    Cu95      4.16725       1   1  -1           -0.00325 
    100     Cu8     Zr9      3.71680       0   0   0           -0.16993 
    101     Cu8    Cu10      3.72652       0   0   0            0.00065 
    102     Cu8    Zr11      2.24017       0   0   0           -3.39095 
    103     Cu8    Cu15      3.19503       0   0   1           -0.06774 
    104     Cu8    Zr26      3.48253       0   0   0           -0.20098 
    105     Cu8    Cu30      3.85439       0   0   1           -0.03068 
    106     Cu8    Zr32      2.60452       0   0   1           -1.61790 
    107     Cu8    Zr33      2.92946       0   0   0           -0.76541 
    108     Cu8    Al34      3.89760       0   0   0           -0.06042 
    109     Cu8    Zr38      2.67641       0   0   1           -1.33635 
    110     Cu8    Cu39      2.46515       0   0   0           -0.46853 
    111     Cu8    Cu61      3.34824       0   0   1           -0.12476 
    112     Cu8    Cu66      4.07314       0   0   1            0.00047 
    113     Cu8    Zr82      3.30767       1   0   0           -0.30289 
    114     Zr9    Cu10      3.07004       0   0   0           -0.64959 
    115     Zr9    Zr11      3.01360       0   0   0           -2.03271 
    116     Zr9    Zr12      3.51756       0   0   0           -0.84063 
    117     Zr9    Zr52      4.03367       1   0   0           -0.28260 
    118     Zr9    Cu75      3.95212       1   0   0           -0.06459 
    119     Zr9    Zr76      3.26491       1   0   0           -1.23288 
    120     Zr9    Zr77      2.47293       1   0   0           -6.63998 
    121     Zr9    Cu78      2.76322       1   0   0           -1.10737 
    122     Zr9    Zr82      3.60147       1   0   0           -0.63298 
    123     Zr9    Zr83      2.99459       1   0   0           -1.85075 
    124     Zr9    Cu84      3.04470       1   0   0           -0.54806 
    125     Zr9    Zr85      3.74966       1   0   0           -0.53486 
    126    Cu10    Zr11      3.52088       0   0   0           -0.17938 
    127    Cu10    Zr12      2.66318       0   0   0           -1.33212 
    128    Cu10    Zr26      2.28472       0   0   0           -2.75833 
    129    Cu10    Cu28      3.80334       0   0   0           -0.01032 
    130    Cu10    Zr29      3.37300       0   0   0           -0.31097 
    131    Cu10    Zr33      4.09773       0   0   0           -0.03417 
    132    Cu10    Al34      2.38870       0   0   0           -1.79431 
    133    Cu10    Cu35      3.15165       0   0   0           -0.03925 
    134    Cu10    Cu36      2.72218       0   0   0           -0.19215 
    135    Cu10    Cu39      4.11867       0   0   0           -0.00629 
    136    Cu10    Zr40      3.82072       0   0   0           -0.04494 
    137    Cu10    Cu78      3.93671       1   0   0           -0.00603 
    138    Cu10    Zr85      3.22685       1   0   0           -0.57157 
    139    Zr11    Zr12      3.40590       0   0   0           -0.79335 
    140    Zr11    Cu15      3.15132       0   0   1           -0.47981 
    141    Zr11    Zr16      3.39098       0   0   0           -0.74459 
    142    Zr11    Al34      3.95741       0   0   0           -0.34119 
    143    Zr11    Zr38      3.87034       0   0   1           -0.58045 
    144    Zr11    Cu39      2.34916       0   0   0           -2.54636 
    145    Zr11    Zr40      3.66457       0   0   0           -0.50561 
    146    Zr11    Zr82      3.41537       1   0   0           -0.95644 
    147    Zr11    Zr83      2.73648       1   0   0           -3.34145 
    148    Zr11    Cu84      4.18768       1   0   0           -0.06213 
    149    Zr11    Zr87      3.79209       1   0   0           -0.41861 
    150    Zr11    Al89      2.57621       1   0   0           -3.08987 
    151    Zr12    Zr14      3.91140       0   0   0           -0.44510 
    152    Zr12    Cu17      2.86088       0   0   0           -0.67907 
    153    Zr12    Cu18      3.14863       0   0   0           -0.52852 
    154    Zr12    Al34      3.62899       0   0   0           -0.72410 
    155    Zr12    Cu36      2.78391       0   0   0           -0.99781 
    156    Zr12    Zr40      2.84500       0   0   0           -2.72714 
    157    Zr12    Zr59      4.19053       1   0   0           -0.31982 
    158    Zr12    Zr83      4.15183       1   0   0           -0.20182 
    159    Zr12    Cu84      2.86210       1   0   0           -0.81657 
    160    Zr12    Zr85      3.17898       1   0   0           -1.57347 
    161    Zr12    Al89      3.46146       1   0   0           -0.75541 
    162    Zr12    Zr90      2.94185       1   0   0           -2.15366 
    163    Zr12    Cu91      2.53089       1   0   0           -1.91848 
    164    Zr13    Zr14      3.07515       0   0   0           -1.83087 
    165    Zr13    Cu15      3.14641       0   0   0           -0.47442 
    166    Zr13    Zr29      3.16381       0   0   0           -1.65542 
    167    Zr13    Cu30      2.59845       0   0   0           -1.47166 
    168    Zr13    Zr32      4.11269       0   0   0           -0.29257 
    169    Zr13    Zr37      3.92581       0   0   0           -0.43447 
    170    Zr13    Zr38      3.58989       0   0   0           -0.72164 
    171    Zr13    Cu80      3.01343       1   0   0           -0.62675 
    172    Zr13    Zr81      3.63294       1   0   0           -0.57920 
    173    Zr13    Zr82      2.81140       1   0  -1           -3.12224 
    174    Zr13    Zr85      4.09211       1   0   0           -0.27784 
    175    Zr13    Cu86      2.63074       1   0   0           -1.39426 
    176    Zr14    Cu15      3.34924       0   0   0           -0.33610 
    177    Zr14    Cu18      3.05278       0   0   0           -0.56327 
    178    Zr14    Zr19      3.24831       0   0   0           -1.29830 
    179    Zr14    Cu20      2.85857       0   0   0           -0.90122 
    180    Zr14    Zr29      3.24781       0   0   0           -1.30285 
    181    Zr14    Cu30      4.19148       0   0   0           -0.05655 
    182    Zr14    Cu35      3.66911       0   0   0           -0.21662 
    183    Zr14    Cu36      2.50379       0   0   0           -2.19094 
    184    Zr14    Zr37      3.06728       0   0   0           -1.89147 
    185    Zr14    Zr38      3.74420       0   0   0           -0.47661 
    186    Zr14    Zr41      3.79391       0   0   0           -0.47735 
    187    Zr14    Zr42      3.16475       0   0   0           -1.44273 
    188    Zr14    Cu43      4.11020       0   0   0           -0.05841 
    189    Zr14    Zr85      3.59420       1   0   0           -0.74228 
    190    Zr14    Cu86      2.48585       1   0   0           -2.07569 
    191    Zr14    Cu91      3.20809       1   0   0           -0.48163 
    192    Cu15    Zr16      2.90279       0   0  -1           -0.66422 
    193    Cu15    Zr19      2.95253       0   0   0           -0.66733 
    194    Cu15    Cu20      3.09613       0   0   0           -0.07756 
    195    Cu15    Zr38      2.37698       0   0   0           -2.53643 
    196    Cu15    Cu39      3.80364       0   0  -1           -0.00672 
    197    Cu15    Zr82      2.67082       1   0  -1           -1.27240 
    198    Cu15    Zr83      4.02614       1   0  -1           -0.09104 
    199    Cu15    Cu86      2.85915       1   0   0           -0.16693 
    200    Cu15    Zr87      2.32080       1   0  -1           -2.69252 
    201    Zr16    Zr19      2.80322       0   0   1           -3.37964 
    202    Zr16    Cu20      3.90901       0   0   1           -0.07336 
    203    Zr16    Cu21      2.93533       0   0   0           -0.75671 
    204    Zr16    Cu22      3.14946       0   0   0           -0.30445 
    205    Zr16    Cu24      3.66828       0   0   1           -0.15674 
    206    Zr16    Zr38      3.91217       0   0   1           -0.40447 
    207    Zr16    Cu39      3.36729       0   0   0           -0.24452 
    208    Zr16    Zr44      3.42108       0   0   1           -0.97345 
    209    Zr16    Cu45      3.28404       0   0   0           -0.31761 
    210    Zr16    Cu49      3.90725       0   0   1           -0.11460 
    211    Zr16    Zr50      2.96251       0   0   1           -2.38914 
    212    Zr16    Zr87      3.02495       1   0   0           -1.85833 
    213    Zr16    Zr88      3.71946       1   0   0           -0.63841 
    214    Zr16    Al89      2.82442       1   0   0           -2.31116 
    215    Zr16    Cu94      2.26168       1   0   0           -2.66841 
    216    Zr16   Zr100      4.05031       1   0   1           -0.27965 
    217    Cu17    Cu18      2.64732       0   0   0           -0.41268 
    218    Cu17    Cu22      2.68046       0   0   0           -0.24201 
    219    Cu17    Zr23      2.63960       0   0   0           -1.33864 
    220    Cu17    Cu36      4.07488       0   0   0           -0.00551 
    221    Cu17    Zr40      2.27930       0   0   0           -3.07876 
    222    Cu17    Zr42      3.66005       0   0   0           -0.15348 
    223    Cu17    Cu45      3.92565       0   0   0           -0.00970 
    224    Cu17    Zr47      3.86998       0   0   0           -0.14755 
    225    Cu17    Al89      2.95821       1   0   0           -0.61044 
    226    Cu17    Zr90      2.55496       1   0   0           -1.50450 
    227    Cu17    Cu91      3.92263       1   0   0           -0.00941 
    228    Cu17    Cu92      3.55839       1   0   0           -0.03526 
    229    Cu17    Zr96      3.38987       1   0   0           -0.22121 
    230    Cu17    Zr97      2.63351       1   0   0           -1.42325 
    231    Cu17    Cu98      3.76462       1   0   0           -0.03750 
    232    Cu18    Zr19      3.68041       0   0   0           -0.12941 
    233    Cu18    Cu20      2.45590       0   0   0           -0.68543 
    234    Cu18    Zr23      3.83087       0   0   0           -0.08857 
    235    Cu18    Cu24      2.91602       0   0   0           -0.16509 
    236    Cu18    Cu25      3.27183       0   0   0           -0.05033 
    237    Cu18    Cu36      3.40670       0   0   0           -0.08920 
    238    Cu18    Zr40      3.78574       0   0   0           -0.14606 
    239    Cu18    Zr42      2.43669       0   0   0           -2.28153 
    240    Cu18    Cu86      3.99611       1   0   0           -0.00227 
    241    Cu18    Zr90      3.74727       1   0   0           -0.13008 
    242    Cu18    Cu91      2.50683       1   0   0           -0.58747 
    243    Cu18    Cu92      2.35928       1   0   0           -0.81332 
    244    Cu18    Cu93      3.49420       1   0   0            0.01479 
    245    Cu18    Zr97      2.78960       1   0   0           -1.05786 
    246    Cu18    Cu99      4.13809       1   0   0           -0.00724 
    247    Cu18   Zr100      3.92687       1   0   0           -0.09629 
    248    Zr19    Cu20      2.81265       0   0   0           -0.93076 
    249    Zr19    Cu21      3.92647       0   0  -1           -0.09830 
    250    Zr19    Cu24      2.61675       0   0   0           -1.37679 
    251    Zr19    Cu25      3.00546       0   0   0           -0.63842 
    252    Zr19    Zr37      3.94092       0   0   0           -0.43126 
    253    Zr19    Zr38      3.21152       0   0   0           -1.38429 
    254    Zr19    Zr42      2.89899       0   0   0           -2.77154 
    255    Zr19    Cu43      2.50185       0   0   0           -1.78013 
    256    Zr19    Zr44      3.85515       0   0   0           -0.45372 
    257    Zr19    Cu49      2.62390       0   0   0           -1.37684 
    258    Zr19    Zr50      3.35762       0   0   0           -1.04825 
    259    Zr19    Cu71      3.68692       0   0   0           -0.17692 
    260    Zr19    Zr87      3.99084       1   0  -1           -0.36004 
    261    Zr19   Zr100      4.16263       1   0   0           -0.42028 
    262    Cu20    Cu24      2.41387       0   0   0           -0.49952 
    263    Cu20    Cu25      3.94090       0   0   0           -0.00508 
    264    Cu20    Zr42      3.77066       0   0   0           -0.12595 
    265    Cu20    Zr60      4.07546       1   0   0           -0.09732 
    266    Cu20    Cu67      3.53844       1   0   0           -0.03389 
    267    Cu20    Cu86      2.48788       1   0   0           -0.52464 
    268    Cu20    Zr87      2.74045       1   0  -1           -1.13072 
    269    Cu20    Cu91      3.00622       1   0   0           -0.09871 
    270    Cu20    Cu92      2.97738       1   0   0           -0.10444 
    271    Cu20    Cu93      2.50804       1   0   0           -0.57291 
    272    Cu20   Zr100      2.57892       1   0   0           -1.58635 
    273    Cu21    Cu22      3.96639       0   0   0           -0.00465 
    274    Cu21    Cu24      2.82198       0   0   1           -0.22889 
    275    Cu21    Cu25      3.76031       0   0   1           -0.01570 
    276    Cu21    Cu49      4.18946       0   0   1           -0.03564 
    277    Cu21    Zr50      2.25312       0   0   1           -3.29917 
    278    Cu21    Zr52      4.06817       1  -1   0           -0.04914 
    279    Cu21    Zr76      2.97358       1  -1   0           -0.67349 
    280    Cu21    Zr81      2.87111       1  -1   1           -0.83408 
    281    Cu21    Zr88      4.16780       1   0   0           -0.07245 
    282    Cu21    Cu94      2.29783       1   0   0           -0.85439 
    283    Cu21    Cu95      2.65740       1   0   0           -0.30666 
    284    Cu21   Zr100      3.21324       1   0   1           -0.44531 
    285    Cu22    Zr23      3.38960       0   0   0           -0.32180 
    286    Cu22    Cu39      4.06941       0   0   0           -0.00327 
    287    Cu22    Zr40      3.16931       0   0   0           -0.43229 
    288    Cu22    Cu45      2.35015       0   0   0           -0.82819 
    289    Cu22    Zr46      4.09159       0   0   0           -0.19592 
    290    Cu22    Zr50      3.90711       0   0   1           -0.09061 
    291    Cu22    Zr76      2.92794       1  -1   0           -0.77472 
    292    Cu22    Cu78      4.11179       1  -1   0           -0.01262 
    293    Cu22    Al89      2.37892       1   0   0           -1.90658 
    294    Cu22    Zr90      3.87084       1   0   0           -0.03959 
    295    Cu22    Cu94      2.86991       1   0   0           -0.10327 
    296    Cu22    Zr96      2.63472       1   0   0           -1.20502 
    297    Zr23    Cu25      3.36922       0   0   0           -0.30494 
    298    Zr23    Cu27      3.85610       0  -1   0           -0.09756 
    299    Zr23    Cu28      2.70149       0  -1   0           -1.17444 
    300    Zr23    Zr29      4.18679       0  -1   0           -0.34099 
    301    Zr23    Zr40      3.72731       0   0   0           -0.68015 
    302    Zr23    Zr42      3.71510       0   0   0           -0.50818 
    303    Zr23    Zr47      2.80778       0   0   0           -3.27608 
    304    Zr23    Zr48      4.02019       0   0   0           -0.33605 
    305    Zr23    Cu78      3.13588       1  -1   0           -0.49728 
    306    Zr23    Zr97      2.45829       1   0   0           -6.83006 
    307    Cu24    Cu25      2.00497       0   0   0           -1.61881 
    308    Cu24    Zr42      3.46697       0   0   0           -0.25625 
    309    Cu24    Cu49      4.04024       0   0   0           -0.00630 
    310    Cu24    Zr50      3.64196       0   0   0           -0.14941 
    311    Cu24    Zr81      4.15970       1  -1   0           -0.08656 
    312    Cu24    Zr87      4.13698       1   0  -1           -0.05648 
    313    Cu24    Cu92      3.33392       1   0   0           -0.02859 
    314    Cu24    Cu94      4.07337       1   0  -1           -0.00138 
    315    Cu24    Cu95      4.05605       1   0  -1           -0.01465 
    316    Cu24    Zr97      3.40544       1   0   0           -0.28844 
    317    Cu24    Cu99      3.43919       1   0   0           -0.04201 
    318    Cu24   Zr100      2.14772       1   0   0           -4.28992 
    319    Cu25    Cu28      4.15704       0  -1   0           -0.00371 
    320    Cu25    Zr42      2.61289       0   0   0           -1.47400 
    321    Cu25    Zr47      4.05434       0   0   0           -0.10350 
    322    Cu25    Zr48      2.41315       0   0   0           -2.36706 
    323    Cu25    Cu49      3.24902       0   0   0           -0.08394 
    324    Cu25    Zr50      3.61166       0   0   0           -0.16995 
    325    Cu25    Cu71      3.84711       0   0   0           -0.02117 
    326    Cu25    Zr97      3.28889       1   0   0           -0.32867 
    327    Cu25   Zr100      4.08056       1   0   0           -0.11794 
    328    Zr26    Cu27      2.82326       0   0   0           -0.88950 
    329    Zr26    Cu28      2.95740       0   0   0           -0.73827 
    330    Zr26    Zr29      4.08777       0   0   0           -0.28081 
    331    Zr26    Zr32      3.52194       0   0   1           -0.78875 
    332    Zr26    Zr33      3.17289       0   0   0           -1.16629 
    333    Zr26    Al34      2.84088       0   0   0           -2.28077 
    334    Zr26    Cu35      3.35778       0   0   0           -0.23737 
    335    Zr26    Zr46      3.99350       0   1   0           -0.36021 
    336    Zr26    Zr51      2.64873       0   0   0           -4.63460 
    337    Zr26    Cu53      3.51424       0   0   0           -0.21852 
    338    Zr26    Zr57      3.56469       0   0   0           -0.57127 
    339    Cu27    Cu28      1.95001       0   0   0           -1.56717 
    340    Cu27    Cu35      4.13320       0   0   0           -0.00966 
    341    Cu27    Zr46      2.93895       0   1   0           -0.71082 
    342    Cu27    Zr47      2.84113       0   1   0           -0.89428 
    343    Cu27    Zr51      2.73498       0   0   0           -1.15848 
    344    Cu27    Zr52      3.08163       0   0   0           -0.58999 
    345    Cu27    Cu53      2.55948       0   0   0           -0.38752 
    346    Cu27    Zr57      4.05250       0   0   0           -0.07067 
    347    Cu27    Cu68      3.91175       0   1   0           -0.00463 
    348    Cu27    Cu69      2.42765       0   1   0           -0.68189 
    349    Cu27    Zr70      3.73354       0   1   0           -0.13039 
    350    Cu27    Cu74      3.79439       0   1   1           -0.03750 
    351    Cu27    Cu95      3.51408       0   1   0           -0.02195 
    352    Cu28    Zr29      2.67166       0   0   0           -1.42553 
    353    Cu28    Cu35      3.31007       0   0   0           -0.07486 
    354    Cu28    Zr47      2.94171       0   1   0           -0.70119 
    355    Cu28    Zr48      3.09392       0   1   0           -0.61312 
    356    Cu28    Cu53      2.36745       0   0   0           -0.72574 
    357    Cu28    Cu69      3.66185       0   1   0           -0.02248 
    358    Cu28    Zr70      3.73208       0   1   0           -0.13916 
    359    Zr29    Cu30      3.57083       0   0   0           -0.13789 
    360    Zr29    Cu35      2.34412       0   0   0           -2.84547 
    361    Zr29    Cu36      3.32954       0   0   0           -0.42998 
    362    Zr29    Zr37      3.73323       0   0   0           -0.53978 
    363    Zr29    Zr48      3.52602       0   1   0           -0.79967 
    364    Zr29    Cu53      3.15245       0   0   0           -0.50852 
    365    Zr29    Zr54      3.65238       0   0   0           -0.65678 
    366    Zr29    Zr85      3.11363       1   0   0           -1.88320 
    367    Cu30    Zr31      3.12976       0   0   0           -0.50657 
    368    Cu30    Zr32      2.93660       0   0   0           -0.78911 
    369    Cu30    Zr37      2.77591       0   0   0           -0.96030 
    370    Cu30    Zr38      2.96336       0   0   0           -0.75821 
    371    Cu30    Zr48      3.79964       0   1   0           -0.16686 
    372    Cu30    Zr54      2.19706       0   0   0           -3.65844 
    373    Cu30    Cu58      3.92646       0   0   0           -0.03620 
    374    Cu30    Cu61      2.71832       0   0   0           -0.29541 
    375    Cu30    Cu72      4.18851       0   1   0           -0.01950 
    376    Zr31    Zr32      2.58608       0   0   0           -5.13574 
    377    Zr31    Zr46      3.23868       0   1  -1           -1.30178 
    378    Zr31    Zr48      3.91971       0   1   0           -0.40538 
    379    Zr31    Cu49      3.00369       0   1   0           -0.55381 
    380    Zr31    Zr50      2.96848       0   1   0           -2.25852 
    381    Zr31    Zr51      4.14719       0   0  -1           -0.23939 
    382    Zr31    Zr54      3.35870       0   0   0           -1.03267 
    383    Zr31    Zr55      2.66634       0   0   0           -4.06658 
    384    Zr31    Cu61      3.27651       0   0   0           -0.34222 
    385    Zr31    Cu72      2.25989       0   1   0           -3.25851 
    386    Zr31    Zr73      3.46992       0   1   0           -0.89907 
    387    Zr31    Cu74      3.45693       0   1   0           -0.20754 
    388    Zr31    Zr79      3.80239       0   0   0           -0.54901 
    389    Zr31    Cu98      4.16086       0   1   0           -0.08215 
    390    Zr31    Cu99      3.71899       0   1   0           -0.10747 
    391    Zr32    Zr33      4.02307       0   0  -1           -0.39067 
    392    Zr32    Zr38      4.00062       0   0   0           -0.41405 
    393    Zr32    Zr46      3.56062       0   1  -1           -0.64571 
    394    Zr32    Zr50      3.36963       0   1   0           -1.06396 
    395    Zr32    Zr51      3.69962       0   0  -1           -0.52125 
    396    Zr32    Zr55      3.89463       0   0   0           -0.41468 
    397    Zr32    Cu61      2.87093       0   0   0           -0.83639 
    398    Zr32    Zr76      3.95192       1   0  -1           -0.43934 
    399    Zr32    Zr82      4.11616       1   0  -1           -0.33459 
    400    Zr33    Al34      2.62443       0   0   0           -3.01326 
    401    Zr33    Zr38      3.89165       0   0   1           -0.50993 
    402    Zr33    Cu39      2.56043       0   0   0           -1.52437 
    403    Zr33    Zr44      3.75294       0   0   1           -0.63387 
    404    Zr33    Zr51      3.29043       0   0   0           -1.13598 
    405    Zr33    Cu56      3.23744       0   0   0           -0.35820 
    406    Zr33    Zr57      3.93298       0   0   0           -0.26651 
    407    Zr33    Zr60      2.68371       0   0   1           -4.32515 
    408    Zr33    Cu61      2.97831       0   0   1           -0.79578 
    409    Zr33    Zr62      3.57769       0   0   0           -0.55022 