  COHP#  atomMU  atomNU     distance     translation      ICOHP (at) eF   for spin  1
      1     Cu1     Zr2      3.26048       0   0   0           -0.41728 
      2     Cu1     Cu3      2.47778       0   0   0           -0.48810 
      3     Cu1     Cu7      2.58171       0   0   1           -0.41301 
      4     Cu1     Cu8      2.40662       0   0   0           -0.61446 
      5     Cu1     Zr9      2.74503       0   0   0           -1.09366 
      6     Cu1    Cu10      2.60338       0   0   0           -0.32970 
      7     Cu1    Zr11      2.94996       0   0   0           -0.74146 
      8     Cu1    Cu15      4.09757       0   0   1           -0.00653 
      9     Cu1    Zr26      2.77007       0   0   0           -1.02712 
     10     Cu1    Zr32      3.20807       0   0   1           -0.42603 
     11     Cu1    Al34      4.09130       0   0   0           -0.02055 
     12     Cu1    Zr76      2.95990       1   0   0           -0.71329 
     13     Cu1    Zr82      2.50146       1   0   0           -1.79916 
     14     Zr2     Cu3      2.82716       0   0   0           -0.96349 
     15     Zr2     Cu7      3.24937       0   0   1           -0.40954 
     16     Zr2    Cu21      3.65828       0   1   0           -0.16153 
     17     Zr2    Cu22      2.63577       0   1   0           -1.66170 
     18     Zr2    Zr23      3.27701       0   1   0           -1.26856 
     19     Zr2    Zr26      3.24629       0   0   0           -1.40292 
     20     Zr2    Cu27      3.04716       0   0   0           -0.60527 
     21     Zr2    Cu28      2.95765       0   0   0           -0.69297 
     22     Zr2    Zr32      3.32168       0   0   1           -1.12659 
     23     Zr2    Cu45      2.81922       0   1   0           -0.93347 
     24     Zr2    Zr46      3.03939       0   1   0           -1.96389 
     25     Zr2    Zr47      3.23824       0   1   0           -1.35415 
     26     Zr2    Zr50      3.34161       0   1   1           -1.06334 
     27     Zr2    Zr76      3.08996       1   0   0           -1.82525 
     28     Cu3     Cu4      3.28991       0   0   0           -0.08334 
     29     Cu3     Zr9      2.86746       0   0   0           -0.82830 
     30     Cu3    Cu10      2.42162       0   0   0           -0.68403 
     31     Cu3    Cu22      4.01753       0   1   0           -0.01419 
     32     Cu3    Zr23      2.72700       0   1   0           -1.23419 
     33     Cu3    Zr26      3.05723       0   0   0           -0.62844 
     34     Cu3    Cu28      2.47379       0   0   0           -0.58609 
     35     Cu3    Zr29      2.91886       0   0   0           -0.80525 
     36     Cu3    Cu35      3.95615       0   0   0           -0.00301 
     37     Cu3    Zr76      2.94450       1   0   0           -0.70096 
     38     Cu3    Cu78      2.80154       1   0   0           -0.31652 
     39     Cu3    Zr85      4.02221       1   0   0           -0.07450 
     40     Cu4     Zr5      2.68909       0   0   0           -1.23078 
     41     Cu4     Cu6      2.61766       0   0   0           -0.41905 
     42     Cu4    Zr13      3.48671       0   0   0           -0.25690 
     43     Cu4    Zr23      2.67630       0   1   0           -1.31191 
     44     Cu4    Cu24      4.00759       0   1   0           -0.00153 
     45     Cu4    Cu25      2.64643       0   1   0           -0.34812 
     46     Cu4    Cu28      4.02332       0   0   0           -0.00778 
     47     Cu4    Zr29      2.77319       0   0   0           -1.19492 
     48     Cu4    Zr48      3.64334       0   1   0           -0.19447 
     49     Cu4    Cu78      2.48963       1   0   0           -0.54816 
     50     Cu4    Zr79      3.38178       1   0   0           -0.28004 
     51     Cu4    Cu80      4.04551       1   0   0           -0.01943 
     52     Cu4    Zr85      2.87695       1   0   0           -0.86472 
     53     Cu4    Zr97      2.73528       1   1   0           -1.10845 
     54     Zr5     Cu6      3.01068       0   0   0           -0.68069 
     55     Zr5     Cu7      2.71984       0   0   0           -1.07481 
     56     Zr5    Zr13      3.01658       0   0   0           -2.12075 
     57     Zr5    Cu21      2.60400       0   1  -1           -1.50347 
     58     Zr5    Cu24      2.77186       0   1   0           -1.07240 
     59     Zr5    Cu25      3.20265       0   1   0           -0.46353 
     60     Zr5    Zr50      3.45441       0   1   0           -0.93081 
     61     Zr5    Zr55      4.09139       1   0   0           -0.30618 
     62     Zr5    Zr79      3.33820       1   0   0           -1.14600 
     63     Zr5    Cu80      2.70258       1   0   0           -1.22008 
     64     Zr5    Zr81      2.89782       1   0   0           -2.55996 
     65     Zr5    Zr85      3.90680       1   0   0           -0.44524 
     66     Zr5    Zr97      3.21194       1   1   0           -1.43407 
     67     Zr5    Cu99      2.95904       1   1   0           -0.70120 
     68     Zr5   Zr100      3.90026       1   1   0           -0.44735 
     69     Cu6     Cu7      3.42170       0   0   0           -0.08946 
     70     Cu6    Zr13      2.78845       0   0   0           -0.99541 
     71     Cu6    Cu24      4.10818       0   1   0           -0.00433 
     72     Cu6    Cu25      2.57186       0   1   0           -0.41596 
     73     Cu6    Zr29      3.00475       0   0   0           -0.65828 
     74     Cu6    Cu30      2.36911       0   0   0           -0.65853 
     75     Cu6    Zr31      2.96773       0   0   0           -0.66202 
     76     Cu6    Zr32      3.12372       0   0   0           -0.46924 
     77     Cu6    Zr48      2.73618       0   1   0           -1.22842 
     78     Cu6    Cu49      3.40569       0   1   0           -0.03362 
     79     Cu6    Zr50      2.77931       0   1   0           -1.09166 
     80     Cu6    Zr54      3.98970       0   0   0           -0.08547 
     81     Cu7     Cu8      3.56459       0   0  -1           -0.03113 
     82     Cu7    Zr13      2.82645       0   0   0           -0.96703 
     83     Cu7    Cu21      2.36736       0   1  -1           -0.68891 
     84     Cu7    Zr32      2.68177       0   0   0           -1.34362 
     85     Cu7    Zr50      2.96576       0   1   0           -0.68665 
     86     Cu7    Zr76      2.89271       1   0  -1           -0.80885 
     87     Cu7    Cu80      3.77964       1   0   0           -0.03237 
     88     Cu7    Zr81      3.00506       1   0   0           -0.55693 
     89     Cu7    Zr82      2.78007       1   0  -1           -1.05753 
     90     Cu8    Cu10      3.54991       0   0   0            0.00083 
     91     Cu8    Zr11      2.64660       0   0   0           -1.40666 
     92     Cu8    Zr13      3.46117       0   0   1           -0.32534 
     93     Cu8    Cu15      2.69817       0   0   1           -0.36179 
     94     Cu8    Zr26      2.89424       0   0   0           -0.70216 
     95     Cu8    Cu30      4.06265       0   0   1           -0.01587 
     96     Cu8    Zr32      2.71194       0   0   1           -1.28231 
     97     Cu8    Zr33      2.98941       0   0   0           -0.58286 
     98     Cu8    Al34      3.14197       0   0   0           -0.49914 
     99     Cu8    Zr38      2.79638       0   0   1           -1.07391 
    100     Cu8    Cu39      2.41276       0   0   0           -0.48998 
    101     Cu8    Zr82      3.24364       1   0   0           -0.41549 
    102     Zr9    Cu10      2.89396       0   0   0           -0.93421 
    103     Zr9    Zr11      3.31563       0   0   0           -1.07651 
    104     Zr9    Zr12      3.22469       0   0   0           -1.40939 
    105     Zr9    Zr52      3.70008       1   0   0           -0.57803 
    106     Zr9    Cu75      3.10927       1   0   0           -0.47977 
    107     Zr9    Zr76      3.25208       1   0   0           -1.34843 
    108     Zr9    Zr77      3.07966       1   0   0           -1.75131 
    109     Zr9    Cu78      2.70866       1   0   0           -1.27957 
    110     Zr9    Zr82      3.27983       1   0   0           -1.20452 
    111     Zr9    Zr83      2.80600       1   0   0           -3.13038 
    112     Zr9    Cu84      3.53903       1   0   0           -0.22024 
    113     Zr9    Zr85      3.29997       1   0   0           -1.20772 
    114    Cu10    Zr11      2.95657       0   0   0           -0.63845 
    115    Cu10    Zr12      2.99420       0   0   0           -0.74841 
    116    Cu10    Zr26      2.74610       0   0   0           -0.99960 
    117    Cu10    Cu28      3.65571       0   0   0           -0.01415 
    118    Cu10    Zr29      2.89335       0   0   0           -0.93325 
    119    Cu10    Al34      2.75011       0   0   0           -0.96904 
    120    Cu10    Cu35      2.69117       0   0   0           -0.25273 
    121    Cu10    Cu36      2.41615       0   0   0           -0.47990 
    122    Cu10    Zr40      3.83942       0   0   0           -0.07527 
    123    Cu10    Zr85      4.00458       1   0   0           -0.10898 
    124    Zr11    Zr12      3.32585       0   0   0           -0.85191 
    125    Zr11    Cu15      2.81349       0   0   1           -0.92955 
    126    Zr11    Zr16      3.28225       0   0   0           -1.04701 
    127    Zr11    Al34      3.45969       0   0   0           -0.88573 
    128    Zr11    Cu36      4.02499       0   0   0           -0.04388 
    129    Zr11    Cu39      2.80066       0   0   0           -0.95564 
    130    Zr11    Zr40      3.15485       0   0   0           -1.28213 
    131    Zr11    Zr82      2.97848       1   0   0           -2.25630 
    132    Zr11    Zr83      3.22905       1   0   0           -1.05517 
    133    Zr11    Zr87      3.09885       1   0   0           -1.54771 
    134    Zr11    Al89      2.77786       1   0   0           -2.13764 
    135    Zr12    Zr14      3.10031       0   0   0           -1.82154 
    136    Zr12    Cu17      2.86558       0   0   0           -0.63966 
    137    Zr12    Cu18      2.96755       0   0   0           -0.71822 
    138    Zr12    Cu36      2.66247       0   0   0           -1.31201 
    139    Zr12    Zr40      3.34382       0   0   0           -0.93785 
    140    Zr12    Zr42      3.84637       0   0   0           -0.45539 
    141    Zr12    Zr83      3.28040       1   0   0           -0.99344 
    142    Zr12    Cu84      3.11877       1   0   0           -0.49756 
    143    Zr12    Zr85      3.26688       1   0   0           -1.33081 
    144    Zr12    Al89      3.03191       1   0   0           -1.59797 
    145    Zr12    Zr90      3.06626       1   0   0           -1.63749 
    146    Zr12    Cu91      2.99651       1   0   0           -0.69518 
    147    Zr13    Zr14      3.08384       0   0   0           -1.83115 
    148    Zr13    Cu15      3.12767       0   0   0           -0.53780 
    149    Zr13    Zr29      3.51477       0   0   0           -0.83702 
    150    Zr13    Cu30      2.90300       0   0   0           -0.81386 
    151    Zr13    Zr32      3.33008       0   0   0           -1.14440 
    152    Zr13    Zr38      3.41152       0   0   0           -0.98215 
    153    Zr13    Cu80      2.97542       1   0   0           -0.65720 
    154    Zr13    Zr82      3.26378       1   0  -1           -1.31374 
    155    Zr13    Zr85      3.21111       1   0   0           -1.46991 
    156    Zr13    Cu86      2.67889       1   0   0           -1.28685 
    157    Zr14    Cu15      3.32603       0   0   0           -0.35608 
    158    Zr14    Cu18      2.89855       0   0   0           -0.79402 
    159    Zr14    Zr19      3.02119       0   0   0           -1.99766 
    160    Zr14    Cu20      3.36613       0   0   0           -0.32065 
    161    Zr14    Zr29      3.39875       0   0   0           -1.01044 
    162    Zr14    Cu30      3.82851       0   0   0           -0.13123 
    163    Zr14    Cu36      2.79936       0   0   0           -1.07934 
    164    Zr14    Zr37      3.25594       0   0   0           -1.17301 
    165    Zr14    Zr38      2.92478       0   0   0           -2.55464 
    166    Zr14    Zr42      3.34860       0   0   0           -1.01404 
    167    Zr14    Cu43      3.94812       0   0   0           -0.08179 
    168    Zr14    Zr85      3.25071       1   0   0           -1.35899 
    169    Zr14    Cu86      3.13651       1   0   0           -0.51637 
    170    Zr14    Cu91      3.08918       1   0   0           -0.61694 
    171    Cu15    Zr16      2.84722       0   0  -1           -0.85132 
    172    Cu15    Zr19      3.20954       0   0   0           -0.45141 
    173    Cu15    Cu20      2.61735       0   0   0           -0.37642 
    174    Cu15    Zr38      2.82955       0   0   0           -0.88766 
    175    Cu15    Cu39      3.08611       0   0  -1           -0.16877 
    176    Cu15    Zr82      2.91332       1   0  -1           -0.73691 
    177    Cu15    Cu86      2.33414       1   0   0           -0.75435 
    178    Cu15    Zr87      2.79312       1   0  -1           -0.89044 
    179    Cu15    Cu91      4.16285       1   0   0           -0.01454 
    180    Zr16    Zr19      3.08787       0   0   1           -1.91631 
    181    Zr16    Cu20      3.13744       0   0   1           -0.54893 
    182    Zr16    Cu21      2.85472       0   0   0           -0.93318 
    183    Zr16    Cu22      2.89295       0   0   0           -0.68844 
    184    Zr16    Cu24      3.06736       0   0   1           -0.59613 
    185    Zr16    Cu39      3.09632       0   0   0           -0.61325 
    186    Zr16    Zr40      3.86201       0   0   0           -0.36679 
    187    Zr16    Zr44      3.87515       0   0   1           -0.48815 
    188    Zr16    Cu45      2.80059       0   0   0           -1.03027 
    189    Zr16    Zr50      3.22267       0   0   1           -1.45708 
    190    Zr16    Zr87      3.06167       1   0   0           -1.71757 
    191    Zr16    Al89      3.13438       1   0   0           -1.37521 
    192    Zr16    Cu94      2.71381       1   0   0           -1.02086 
    193    Zr16   Zr100      3.49179       1   0   1           -0.88509 
    194    Cu17    Cu18      2.47981       0   0   0           -0.56823 
    195    Cu17    Cu22      2.63671       0   0   0           -0.17543 
    196    Cu17    Zr23      2.60690       0   0   0           -1.55617 
    197    Cu17    Cu25      3.74814       0   0   0           -0.01963 
    198    Cu17    Cu36      3.93839       0   0   0           -0.01358 
    199    Cu17    Zr40      2.77858       0   0   0           -0.92316 
    200    Cu17    Zr42      2.96448       0   0   0           -0.75122 
    201    Cu17    Al89      2.42614       1   0   0           -1.59179 
    202    Cu17    Zr90      2.78760       1   0   0           -0.81535 
    203    Cu17    Cu94      3.92284       1   0   0           -0.00055 
    204    Cu17    Zr96      3.03092       1   0   0           -0.45116 
    205    Cu17    Zr97      2.89607       1   0   0           -0.91746 
    206    Cu18    Zr19      2.88403       0   0   0           -0.85818 
    207    Cu18    Cu20      2.56838       0   0   0           -0.47521 
    208    Cu18    Zr23      4.06826       0   0   0           -0.05785 
    209    Cu18    Cu24      2.76228       0   0   0           -0.25190 
    210    Cu18    Cu25      3.07928       0   0   0           -0.10399 
    211    Cu18    Cu36      3.97252       0   0   0           -0.01488 
    212    Cu18    Zr42      2.77731       0   0   0           -0.94484 
    213    Cu18    Cu86      4.11575       1   0   0           -0.00488 
    214    Cu18    Zr90      2.98428       1   0   0           -0.75390 
    215    Cu18    Cu91      2.61152       1   0   0           -0.43406 
    216    Cu18    Cu92      2.82391       1   0   0           -0.25800 
    217    Cu18    Zr97      2.72338       1   0   0           -1.18378 
    218    Zr19    Cu20      2.93950       0   0   0           -0.72677 
    219    Zr19    Cu24      2.66424       0   0   0           -1.26982 
    220    Zr19    Cu25      2.82905       0   0   0           -0.87424 
    221    Zr19    Zr38      3.03259       0   0   0           -1.89835 
    222    Zr19    Cu39      3.94807       0   0  -1           -0.11351 
    223    Zr19    Zr42      2.88033       0   0   0           -2.72891 
    224    Zr19    Cu43      2.99859       0   0   0           -0.60061 
    225    Zr19    Zr44      3.07895       0   0   0           -1.82238 
    226    Zr19    Cu45      4.18245       0   0  -1           -0.05151 
    227    Zr19    Cu49      2.75664       0   0   0           -1.01325 
    228    Zr19    Zr50      3.20623       0   0   0           -1.44212 
    229    Cu20    Cu24      2.43314       0   0   0           -0.58191 
    230    Cu20    Cu86      2.49150       1   0   0           -0.49480 
    231    Cu20    Zr87      2.87068       1   0  -1           -0.89906 
    232    Cu20    Cu91      2.53745       1   0   0           -0.48381 
    233    Cu20    Cu92      2.50141       1   0   0           -0.47752 
    234    Cu20    Cu93      2.57886       1   0   0           -0.43767 
    235    Cu20    Zr97      4.14984       1   0   0           -0.04254 
    236    Cu20   Zr100      2.88269       1   0   0           -0.86504 
    237    Cu21    Cu22      3.29581       0   0   0           -0.09511 
    238    Cu21    Cu24      2.62565       0   0   1           -0.39471 
    239    Cu21    Cu25      4.18012       0   0   1           -0.00328 
    240    Cu21    Cu45      4.15508       0   0   0           -0.00649 
    241    Cu21    Zr50      2.64038       0   0   1           -1.42141 
    242    Cu21    Zr76      2.85760       1  -1   0           -0.83212 
    243    Cu21    Zr81      2.86111       1  -1   1           -0.84375 
    244    Cu21    Cu94      2.54105       1   0   0           -0.56671 
    245    Cu21    Cu95      3.28722       1   0   0           -0.05125 
    246    Cu21    Cu99      3.88149       1   0   1           -0.01232 
    247    Cu21   Zr100      2.90935       1   0   1           -0.78755 
    248    Cu22    Zr23      2.86309       0   0   0           -0.90261 
    249    Cu22    Zr40      2.87600       0   0   0           -0.67881 
    250    Cu22    Cu45      2.91243       0   0   0           -0.25761 
    251    Cu22    Zr47      3.82594       0   0   0           -0.14412 
    252    Cu22    Zr76      2.82722       1  -1   0           -1.04401 
    253    Cu22    Al89      2.45589       1   0   0           -1.66244 
    254    Cu22    Cu94      2.35457       1   0   0           -0.44913 
    255    Cu22    Zr96      3.24760       1   0   0           -0.30866 
    256    Zr23    Cu25      2.94865       0   0   0           -0.80482 
    257    Zr23    Cu28      2.91556       0  -1   0           -0.73994 
    258    Zr23    Zr29      3.94517       0  -1   0           -0.43097 
    259    Zr23    Zr40      3.84342       0   0   0           -0.50581 
    260    Zr23    Zr42      3.37646       0   0   0           -1.02290 
    261    Zr23    Zr47      3.26499       0   0   0           -1.25031 
    262    Zr23    Zr48      3.23580       0   0   0           -1.36802 
    263    Zr23    Zr76      3.73837       1  -1   0           -0.57541 
    264    Zr23    Cu78      3.15855       1  -1   0           -0.53901 
    265    Zr23    Zr96      3.74054       1   0   0           -0.56118 
    266    Zr23    Zr97      3.10926       1   0   0           -1.69249 
    267    Cu24    Cu25      2.46898       0   0   0           -0.56368 
    268    Cu24    Zr50      3.06604       0   0   0           -0.56475 
    269    Cu24    Cu92      2.84222       1   0   0           -0.23946 
    270    Cu24    Cu94      4.16064       1   0  -1           -0.00588 
    271    Cu24    Zr97      2.79761       1   0   0           -1.04682 
    272    Cu24    Cu99      3.25272       1   0   0           -0.07081 
    273    Cu24   Zr100      2.71666       1   0   0           -1.16368 
    274    Cu25    Zr42      2.79551       0   0   0           -0.99559 
    275    Cu25    Zr48      2.83109       0   0   0           -0.99025 
    276    Cu25    Cu49      2.77891       0   0   0           -0.31917 
    277    Cu25    Zr50      2.99803       0   0   0           -0.67388 
    278    Cu25    Zr97      2.80767       1   0   0           -0.92338 
    279    Zr26    Cu27      2.72732       0   0   0           -1.16011 
    280    Zr26    Cu28      2.81325       0   0   0           -1.01423 
    281    Zr26    Zr32      2.99251       0   0   1           -2.17710 
    282    Zr26    Zr33      3.47786       0   0   0           -0.67634 
    283    Zr26    Al34      2.81826       0   0   0           -2.30003 
    284    Zr26    Cu35      2.86673       0   0   0           -0.76952 
    285    Zr26    Zr46      4.16159       0   1   0           -0.33746 
    286    Zr26    Zr51      3.34159       0   0   0           -1.10241 
    287    Zr26    Cu53      2.78833       0   0   0           -0.95413 
    288    Zr26    Zr57      3.29841       0   0   0           -1.10151 
    289    Cu27    Cu28      2.43140       0   0   0           -0.57819 
    290    Cu27    Zr32      4.00865       0   0   1           -0.08559 
    291    Cu27    Zr46      2.58447       0   1   0           -1.54907 
    292    Cu27    Zr47      3.00394       0   1   0           -0.63503 
    293    Cu27    Zr51      2.95336       0   0   0           -0.73359 
    294    Cu27    Zr52      3.10442       0   0   0           -0.54276 
    295    Cu27    Cu53      2.29173       0   0   0           -0.76288 
    296    Cu27    Zr57      4.00451       0   0   0           -0.08034 
    297    Cu27    Cu69      2.42052       0   1   0           -0.68471 
    298    Cu27    Zr70      2.95959       0   1   0           -0.70785 
    299    Cu27    Cu95      4.18498       0   1   0           -0.00113 
    300    Cu28    Zr29      2.92425       0   0   0           -0.79428 
    301    Cu28    Cu35      3.25902       0   0   0           -0.09247 
    302    Cu28    Zr47      2.97947       0   1   0           -0.66318 
    303    Cu28    Zr48      2.71484       0   1   0           -1.27421 
    304    Cu28    Cu53      2.45902       0   0   0           -0.54506 
    305    Cu28    Zr54      3.56317       0   0   0           -0.24859 
    306    Cu28    Zr70      3.42142       0   1   0           -0.30227 
    307    Zr29    Cu30      2.82014       0   0   0           -0.97876 
    308    Zr29    Cu35      2.80712       0   0   0           -1.11219 
    309    Zr29    Cu36      3.31510       0   0   0           -0.39545 
    310    Zr29    Zr37      3.39292       0   0   0           -1.00464 
    311    Zr29    Zr48      3.41318       0   1   0           -0.99395 
    312    Zr29    Cu53      3.98905       0   0   0           -0.06581 
    313    Zr29    Zr54      3.33893       0   0   0           -1.16564 
    314    Zr29    Cu78      4.10548       1   0   0           -0.06041 
    315    Zr29    Zr85      3.31733       1   0   0           -1.25143 
    316    Cu30    Zr31      2.91205       0   0   0           -0.80627 
    317    Cu30    Zr32      2.84221       0   0   0           -0.93635 
    318    Cu30    Zr37      2.90031       0   0   0           -0.76357 
    319    Cu30    Zr38      3.00017       0   0   0           -0.67699 
    320    Cu30    Zr48      3.72592       0   1   0           -0.13711 
    321    Cu30    Zr54      2.75917       0   0   0           -1.11420 
    322    Cu30    Zr55      4.05154       0   0   0           -0.07841 
    323    Cu30    Cu61      2.31179       0   0   0           -0.77828 
    324    Zr31    Zr32      3.05234       0   0   0           -1.87825 
    325    Zr31    Zr46      3.00609       0   1  -1           -2.12245 
    326    Zr31    Zr48      3.15848       0   1   0           -1.57363 
    327    Zr31    Cu49      2.83001       0   1   0           -0.94771 
    328    Zr31    Zr50      3.41413       0   1   0           -0.97931 
    329    Zr31    Zr51      3.44324       0   0  -1           -0.88386 
    330    Zr31    Zr54      3.30669       0   0   0           -1.07774 
    331    Zr31    Zr55      2.77918       0   0   0           -3.22803 
    332    Zr31    Cu61      3.26574       0   0   0           -0.35723 
    333    Zr31    Cu71      4.18656       0   1   0           -0.04621 
    334    Zr31    Cu72      2.70858       0   1   0           -1.15311 
    335    Zr31    Zr73      3.56290       0   1   0           -0.76913 
    336    Zr31    Cu74      2.86929       0   1   0           -0.79509 
    337    Zr31    Cu99      4.05212       0   1   0           -0.08143 
    338    Zr32    Zr33      3.82190       0   0  -1           -0.47921 
    339    Zr32    Zr38      3.92393       0   0   0           -0.45893 
    340    Zr32    Zr46      3.29869       0   1  -1           -1.12933 
    341    Zr32    Zr50      3.22665       0   1   0           -1.39407 
    342    Zr32    Zr51      3.26906       0   0  -1           -1.23334 
    343    Zr32    Cu61      3.41561       0   0   0           -0.28253 
    344    Zr33    Al34      2.94902       0   0   0           -1.81503 
    345    Zr33    Zr38      3.05544       0   0   1           -2.02482 
    346    Zr33    Cu39      2.74501       0   0   0           -0.90676 
    347    Zr33    Zr44      3.57190       0   0   1           -0.75729 
    348    Zr33    Zr51      3.25994       0   0   0           -1.35169 
    349    Zr33    Cu56      2.76970       0   0   0           -1.09854 
    350    Zr33    Zr57      3.14717       0   0   0           -1.43941 
    351    Zr33    Zr60      3.20311       0   0   1           -1.41568 
    352    Zr33    Cu61      2.89366       0   0   1           -0.92695 
    353    Zr33    Zr62      3.40669       0   0   0           -0.84854 
    354    Zr33    Cu66      2.96499       0   0   1           -0.81233 
    355    Zr33    Cu67      3.12608       0   0   1           -0.55543 
    356    Zr33    Cu75      4.15462       0   0   0           -0.05505 
    357    Al34    Cu35      2.55152       0   0   0           -1.39499 
    358    Al34    Cu36      2.79142       0   0   0           -0.90069 
    359    Al34    Cu39      2.54755       0   0   0           -1.41408 
    360    Al34    Zr40      2.85585       0   0   0           -2.12341 
    361    Al34    Zr41      2.91695       0   0   0           -1.92139 
    362    Al34    Cu53      4.08955       0   0   0           -0.05192 
    363    Al34    Cu56      4.06451       0   0   0           -0.04611 
    364    Al34    Zr57      3.00087       0   0   0           -1.73726 
    365    Al34    Cu58      4.06063       0   0   0           -0.04478 
    366    Al34    Zr62      3.06881       0   0   0           -1.47599 
    367    Al34    Cu63      3.81159       0   0   0           -0.11926 
    368    Cu35    Cu36      2.54624       0   0   0           -0.30927 
    369    Cu35    Zr37      2.78610       0   0   0           -1.11243 
    370    Cu35    Zr41      3.05876       0   0   0           -0.43212 
    371    Cu35    Cu53      2.41256       0   0   0           -0.62984 
    372    Cu35    Zr54      3.09846       0   0   0           -0.68197 
    373    Cu35    Zr57      2.96198       0   0   0           -0.54618 
    374    Cu35    Cu58      2.51954       0   0   0           -0.48911 
    375    Cu35    Cu63      4.02482       0   0   0           -0.00197 
    376    Cu36    Zr37      2.95203       0   0   0           -0.75566 
    377    Cu36    Zr40      2.72374       0   0   0           -0.86857 
    378    Cu36    Zr41      2.66276       0   0   0           -1.01407 
    379    Cu36    Zr42      2.86444       0   0   0           -0.83569 
    380    Cu36    Cu43      4.01024       0   0   0           -0.01847 
    381    Zr37    Zr38      2.96898       0   0   0           -2.13877 
    382    Zr37    Zr41      2.99775       0   0   0           -2.08211 
    383    Zr37    Zr42      3.93861       0   0   0           -0.39308 
    384    Zr37    Cu43      2.67249       0   0   0           -1.20787 
    385    Zr37    Zr54      3.11078       0   0   0           -1.67868 
    386    Zr37    Cu58      2.72037       0   0   0           -1.09422 
    387    Zr37    Zr59      3.74096       0   0   0           -0.57293 
    388    Zr37    Cu61      3.07411       0   0   0           -0.62060 
    389    Zr37    Zr65      3.31212       0   0   0           -1.21818 
    390    Zr37    Cu66      2.93530       0   0   0           -0.70496 
    391    Zr38    Cu39      2.93506       0   0  -1           -0.81507 
    392    Zr38    Cu43      3.20218       0   0   0           -0.40778 
    393    Zr38    Zr44      3.24716       0   0   0           -1.33886 
    394    Zr38    Cu61      3.10638       0   0   0           -0.56870 
    395    Zr38    Cu66      2.97784       0   0   0           -0.70969 
    396    Cu39    Zr40      3.06796       0   0   0           -0.43864 
    397    Cu39    Zr44      2.74192       0   0   1           -1.20047 
    398    Cu39    Cu45      2.67865       0   0   0           -0.35647 
    399    Cu39    Zr62      3.10732       0   0   0           -0.44047 
    400    Zr40    Zr41      3.25017       0   0   0           -1.15053 
    401    Zr40    Zr42      3.10696       0   0   0           -1.72186 
    402    Zr40    Cu45      2.88190       0   0   0           -0.82092 
    403    Zr40    Zr47      2.95941       0   0   0           -2.44303 
    404    Zr40    Zr62      3.52703       0   0   0           -0.64365 
    405    Zr40    Al89      3.08801       1   0   0           -1.52153 
    406    Zr41    Zr42      3.09394       0   0   0           -1.72987 
    407    Zr41    Cu43      3.15031       0   0   0           -0.53177 
    408    Zr41    Zr47      3.32713       0   0   0           -1.10139 
    409    Zr41    Zr57      3.85057       0   0   0           -0.39811 