
     Program PWSCF v.6.2 (svn rev. 13949:13950) starts on 19Apr2019 at 16:54:37 

     This program is part of the open-source Quantum ESPRESSO suite
     for quantum simulation of materials; please cite
         "P. Giannozzi et al., J. Phys.:Condens. Matter 21 395502 (2009);
         "P. Giannozzi et al., J. Phys.:Condens. Matter 29 465901 (2017);
          URL http://www.quantum-espresso.org", 
     in publications or presentations arising from this work. More details at
     http://www.quantum-espresso.org/quote

     Parallel version (MPI & OpenMP), running on     192 processor cores
     Number of MPI processes:               192
     Threads/MPI process:                     1

     MPI processes distributed on     8 nodes
     K-points division:     npool     =       8
     R & G space division:  proc/nbgrp/npool/nimage =      24
     Waiting for input...
     Reading input from standard input

     Current dimensions of program PWSCF are:
     Max number of different atomic species (ntypx) = 10
     Max number of k-points (npk) =  40000
     Max angular momentum in pseudopotentials (lmaxx) =  3
               file Al.aryjr-1.0.0-ld1.UPF: wavefunction(s)  3S 3P renormalized
               file Cu.aryjr-1.0.0-ld1.UPF: wavefunction(s)  4S 3P 3D renormalized
               file Zr.aryjr-1.0.0-ld1.UPF: wavefunction(s)  4S 4P renormalized

     Subspace diagonalization in iterative solution of the eigenvalue problem:
     one sub-group per band group will be used
     scalapack distributed-memory algorithm (size of sub-group:  3*  3 procs)

 
     Parallelization info
     --------------------
     sticks:   dense  smooth     PW     G-vecs:    dense   smooth      PW
     Min         959     480    123               109481    38716    5057
     Max         960     481    124               109484    38720    5062
     Sum       23029   11521   2965              2627583   929241  121409
 

     Title: 
     Zr49Cu49Al2                                                                


     bravais-lattice index     =            0
     lattice parameter (alat)  =      22.7304  a.u.
     unit-cell volume          =   11744.1708 (a.u.)^3
     number of atoms/cell      =          100
     number of atomic types    =            3
     number of electrons       =      1525.00
     number of Kohn-Sham states=         1086
     kinetic-energy cutoff     =      70.0000  Ry
     charge density cutoff     =     560.0000  Ry
     convergence threshold     =      1.0E-06
     mixing beta               =       0.4000
     number of iterations used =            8  plain     mixing
     Exchange-correlation      =  SLA  PW   PBX  PBC ( 1  4  3  4 0 0)

     celldm(1)=  22.730420  celldm(2)=   0.000000  celldm(3)=   0.000000
     celldm(4)=   0.000000  celldm(5)=   0.000000  celldm(6)=   0.000000

     crystal axes: (cart. coord. in units of alat)
               a(1) = (   1.000000   0.000000   0.000000 )  
               a(2) = (   0.000000   1.000000   0.000000 )  
               a(3) = (   0.000000   0.000000   1.000000 )  

     reciprocal axes: (cart. coord. in units 2 pi/alat)
               b(1) = (  1.000000  0.000000  0.000000 )  
               b(2) = (  0.000000  1.000000  0.000000 )  
               b(3) = (  0.000000  0.000000  1.000000 )  


     PseudoPot. # 1 for Al read from file:
     /scratch/rmnvm/ary.junior/UPFs/Al.aryjr-1.0.0-ld1.UPF
     MD5 check sum: 23518be3108914e66f28d0b5ae5ea896
     Pseudo is Projector augmented-wave + core cor, Zval =  3.0
     Generated using "atomic" code by A. Dal Corso  v.5.3.0 svn rev. 11974
     Shape of augmentation charge: PSQ
     Using radial grid of 1135 points,  4 beta functions with: 
                l(1) =   0
                l(2) =   0
                l(3) =   1
                l(4) =   1
     Q(r) pseudized with 0 coefficients 


     PseudoPot. # 2 for Cu read from file:
     /scratch/rmnvm/ary.junior/UPFs/Cu.aryjr-1.0.0-ld1.UPF
     MD5 check sum: 9308548b6d8348cb0f7fa79efd90ef1e
     Pseudo is Projector augmented-wave + core cor, Zval = 19.0
     Generated using "atomic" code by A. Dal Corso  v.5.3.0 svn rev. 11974
     Shape of augmentation charge: PSQ
     Using radial grid of 1199 points,  6 beta functions with: 
                l(1) =   0
                l(2) =   0
                l(3) =   1
                l(4) =   1
                l(5) =   2
                l(6) =   2
     Q(r) pseudized with 0 coefficients 


     PseudoPot. # 3 for Zr read from file:
     /scratch/rmnvm/ary.junior/UPFs/Zr.aryjr-1.0.0-ld1.UPF
     MD5 check sum: 20f111a850f3481eb9ed9a4dbb9cca44
     Pseudo is Projector augmented-wave + core cor, Zval = 12.0
     Generated using "atomic" code by A. Dal Corso  v.5.3.0 svn rev. 11974
     Shape of augmentation charge: PSQ
     Using radial grid of 1225 points,  6 beta functions with: 
                l(1) =   0
                l(2) =   0
                l(3) =   1
                l(4) =   1
                l(5) =   2
                l(6) =   2
     Q(r) pseudized with 0 coefficients 


     atomic species   valence    mass     pseudopotential
        Al             3.00    26.98150     Al( 1.00)
        Cu            19.00    63.54630     Cu( 1.00)
        Zr            12.00    91.22400     Zr( 1.00)

     No symmetry found


                                    s                        frac. trans.

      isym =  1     identity                                     

 cryst.   s( 1) = (     1          0          0      )
                  (     0          1          0      )
                  (     0          0          1      )

 cart.    s( 1) = (  1.0000000  0.0000000  0.0000000 )
                  (  0.0000000  1.0000000  0.0000000 )
                  (  0.0000000  0.0000000  1.0000000 )


   Cartesian axes

     site n.     atom                  positions (alat units)
         1           Cu  tau(   1) = (   0.1532540   0.2277590   0.1567850  )
         2           Zr  tau(   2) = (   0.2632450  -0.0190070   0.1788030  )
         3           Cu  tau(   3) = (   0.1770600   0.1315620   0.3373750  )
         4           Cu  tau(   4) = (   0.1041000   0.0611130   0.5913870  )
         5           Zr  tau(   5) = (   0.0179050   0.0327190   0.7957000  )
         6           Cu  tau(   6) = (   0.2603280   0.0656340   0.7428210  )
         7           Cu  tau(   7) = (   0.1177750   0.1023710   0.9862360  )
         8           Cu  tau(   8) = (   0.2607600   0.3549830   0.0459350  )
         9           Zr  tau(   9) = (  -0.0132520   0.2717730   0.3065150  )
        10           Cu  tau(  10) = (   0.2185700   0.3285600   0.3368330  )
        11           Zr  tau(  11) = (   0.1152240   0.4699240   0.1643430  )
        12           Zr  tau(  12) = (   0.0615040   0.4952260   0.4343910  )
        13           Zr  tau(  13) = (   0.1385390   0.2523210   0.8065140  )
        14           Zr  tau(  14) = (   0.1772030   0.4605960   0.6620950  )
        15           Cu  tau(  15) = (   0.1140550   0.4794900   0.9306380  )
        16           Zr  tau(  16) = (   0.1178980   0.6997470   0.0172560  )
        17           Cu  tau(  17) = (   0.0775240   0.7324330   0.4191720  )
        18           Cu  tau(  18) = (   0.0595990   0.6651690   0.6132270  )
        19           Zr  tau(  19) = (   0.2258380   0.6737150   0.7857960  )
        20           Cu  tau(  20) = (  -0.0091150   0.6101890   0.8077750  )
        21           Cu  tau(  21) = (   0.0411810   0.9211880  -0.0202190  )
        22           Cu  tau(  22) = (   0.1181520   0.8230530   0.2237520  )
        23           Zr  tau(  23) = (   0.1762560   0.9250130   0.4308390  )
        24           Cu  tau(  24) = (   0.0470770   0.8041300   0.7956290  )
        25           Cu  tau(  25) = (   0.1929970   0.8760390   0.6704530  )
        26           Zr  tau(  26) = (   0.3771530   0.2235980   0.2105170  )
        27           Cu  tau(  27) = (   0.5030380   0.0370620   0.2382310  )
        28           Cu  tau(  28) = (   0.3667550   0.0675060   0.3843810  )
        29           Zr  tau(  29) = (   0.2658580   0.2188980   0.5456370  )
        30           Cu  tau(  30) = (   0.3727640   0.2269500   0.7541460  )
        31           Zr  tau(  31) = (   0.4909010   0.0266550   0.8215010  )
        32           Zr  tau(  32) = (   0.3344380   0.1538590   0.9755560  )
        33           Zr  tau(  33) = (   0.5010310   0.4176720   0.0356180  )
        34           Al  tau(  34) = (   0.3891260   0.4541170   0.2506940  )
        35           Cu  tau(  35) = (   0.4270120   0.3295000   0.4181220  )
        36           Cu  tau(  36) = (   0.2812900   0.4786180   0.4547210  )
        37           Zr  tau(  37) = (   0.4431220   0.4213950   0.6301280  )
        38           Zr  tau(  38) = (   0.3330890   0.4543610   0.8486030  )
        39           Cu  tau(  39) = (   0.3161030   0.5456970   0.0742360  )
        40           Zr  tau(  40) = (   0.2556010   0.6436620   0.3018270  )
        41           Zr  tau(  41) = (   0.4786970   0.5775920   0.4392130  )
        42           Zr  tau(  42) = (   0.2806530   0.6952180   0.5536880  )
        43           Cu  tau(  43) = (   0.4540980   0.6339770   0.6937910  )
        44           Zr  tau(  44) = (   0.4302580   0.6894230   0.9390530  )
        45           Cu  tau(  45) = (   0.3223560   0.7658970   0.1068750  )
        46           Zr  tau(  46) = (   0.4766140   0.9323300   0.0524910  )
        47           Zr  tau(  47) = (   0.4135570   0.8280610   0.3415760  )
        48           Zr  tau(  48) = (   0.3922520   0.9679630   0.5853350  )
        49           Cu  tau(  49) = (   0.3999990   0.8197080   0.7561930  )
        50           Zr  tau(  50) = (   0.2492660   0.9077680   0.9111820  )
        51           Zr  tau(  51) = (   0.5957130   0.1641180   0.0496730  )
        52           Zr  tau(  52) = (   0.7575530   0.0797000   0.2343880  )
        53           Cu  tau(  53) = (   0.5410490   0.1728210   0.3663910  )
        54           Zr  tau(  54) = (   0.5357240   0.1819230   0.5991130  )
        55           Zr  tau(  55) = (   0.6936450   0.1353580   0.7999840  )
        56           Cu  tau(  56) = (   0.6996980   0.4938770   0.1236250  )
        57           Zr  tau(  57) = (   0.6154380   0.3496160   0.2608670  )
        58           Cu  tau(  58) = (   0.6163860   0.3829110   0.4899580  )
        59           Zr  tau(  59) = (   0.7406390   0.3425790   0.6748370  )
        60           Zr  tau(  60) = (   0.7412480   0.3575700   0.9376560  )
        61           Cu  tau(  61) = (   0.5350970   0.2943340   0.8319010  )
        62           Zr  tau(  62) = (   0.5219300   0.6602630   0.1802780  )
        63           Cu  tau(  63) = (   0.6764360   0.5422660   0.3511770  )
        64           Cu  tau(  64) = (   0.6518880   0.7490820   0.3811960  )
        65           Zr  tau(  65) = (   0.6685970   0.5790940   0.6194550  )
        66           Cu  tau(  66) = (   0.5727900   0.5080700   0.8178100  )
        67           Cu  tau(  67) = (   0.6643170   0.6087910   0.9696280  )
        68           Cu  tau(  68) = (   0.6453030   0.7910700   0.0288590  )
        69           Cu  tau(  69) = (   0.6369180   0.8868360   0.2400110  )
        70           Zr  tau(  70) = (   0.6303260   0.9759980   0.4397490  )
        71           Cu  tau(  71) = (   0.5295050   0.7794890   0.5795060  )
        72           Cu  tau(  72) = (   0.6242650   0.9611470   0.6522980  )
        73           Zr  tau(  73) = (   0.6264570   0.7657160   0.7858100  )
        74           Cu  tau(  74) = (   0.6866730   0.9527310   0.9360050  )
        75           Cu  tau(  75) = (   0.7980740   0.2687160   0.1298460  )
        76           Zr  tau(  76) = (   1.0111800   0.0294580   0.1891070  )
        77           Zr  tau(  77) = (   0.7674370   0.2250570   0.4300980  )
        78           Cu  tau(  78) = (   0.9704410   0.0880180   0.4356580  )
        79           Zr  tau(  79) = (   0.8233740   0.0724900   0.6018010  )
        80           Cu  tau(  80) = (   0.8934150   0.2197080   0.8001380  )
        81           Zr  tau(  81) = (   0.8687050   0.0849730   0.9774930  )
        82           Zr  tau(  82) = (   0.9982840   0.2941060   0.0350030  )
        83           Zr  tau(  83) = (   0.8616490   0.4609810   0.2520130  )
        84           Cu  tau(  84) = (   0.8132930   0.4350980   0.4791560  )
        85           Zr  tau(  85) = (   0.9981660   0.2752820   0.5806030  )
        86           Cu  tau(  86) = (   0.9756890   0.4038440   0.8175500  )
        87           Zr  tau(  87) = (   0.9133460   0.5484550   0.0248790  )
        88           Zr  tau(  88) = (   0.7753420   0.6984470   0.1916040  )
        89           Al  tau(  89) = (   1.0048900   0.6548750   0.2477300  )
        90           Zr  tau(  90) = (   0.8636860   0.6537190   0.4614320  )
        91           Cu  tau(  91) = (   0.9239290   0.4981350   0.6420570  )
        92           Cu  tau(  92) = (   0.8484040   0.7178360   0.7012020  )
        93           Cu  tau(  93) = (   0.7838010   0.5560280   0.8199790  )
        94           Cu  tau(  94) = (   0.9491700   0.8012760   0.1273720  )
        95           Cu  tau(  95) = (   0.7960670   0.9101280   0.1001260  )
        96           Zr  tau(  96) = (   0.8820060   0.8729030   0.3447760  )
        97           Zr  tau(  97) = (   0.9756070   0.8735870   0.5854800  )
        98           Cu  tau(  98) = (   0.7438140   0.8240090   0.5722210  )
        99           Cu  tau(  99) = (   0.8036460   0.9168100   0.7614030  )
       100           Zr  tau( 100) = (   0.8574510   0.7776480   0.9154230  )

   Crystallographic axes

     site n.     atom                  positions (cryst. coord.)
         1           Cu  tau(   1) = (  0.1532540  0.2277590  0.1567850  )
         2           Zr  tau(   2) = (  0.2632450 -0.0190070  0.1788030  )
         3           Cu  tau(   3) = (  0.1770600  0.1315620  0.3373750  )
         4           Cu  tau(   4) = (  0.1041000  0.0611130  0.5913870  )
         5           Zr  tau(   5) = (  0.0179050  0.0327190  0.7957000  )
         6           Cu  tau(   6) = (  0.2603280  0.0656340  0.7428210  )
         7           Cu  tau(   7) = (  0.1177750  0.1023710  0.9862360  )
         8           Cu  tau(   8) = (  0.2607600  0.3549830  0.0459350  )
         9           Zr  tau(   9) = ( -0.0132520  0.2717730  0.3065150  )
        10           Cu  tau(  10) = (  0.2185700  0.3285600  0.3368330  )
        11           Zr  tau(  11) = (  0.1152240  0.4699240  0.1643430  )
        12           Zr  tau(  12) = (  0.0615040  0.4952260  0.4343910  )
        13           Zr  tau(  13) = (  0.1385390  0.2523210  0.8065140  )
        14           Zr  tau(  14) = (  0.1772030  0.4605960  0.6620950  )
        15           Cu  tau(  15) = (  0.1140550  0.4794900  0.9306380  )
        16           Zr  tau(  16) = (  0.1178980  0.6997470  0.0172560  )
        17           Cu  tau(  17) = (  0.0775240  0.7324330  0.4191720  )
        18           Cu  tau(  18) = (  0.0595990  0.6651690  0.6132270  )
        19           Zr  tau(  19) = (  0.2258380  0.6737150  0.7857960  )
        20           Cu  tau(  20) = ( -0.0091150  0.6101890  0.8077750  )
        21           Cu  tau(  21) = (  0.0411810  0.9211880 -0.0202190  )
        22           Cu  tau(  22) = (  0.1181520  0.8230530  0.2237520  )
        23           Zr  tau(  23) = (  0.1762560  0.9250130  0.4308390  )
        24           Cu  tau(  24) = (  0.0470770  0.8041300  0.7956290  )
        25           Cu  tau(  25) = (  0.1929970  0.8760390  0.6704530  )
        26           Zr  tau(  26) = (  0.3771530  0.2235980  0.2105170  )
        27           Cu  tau(  27) = (  0.5030380  0.0370620  0.2382310  )
        28           Cu  tau(  28) = (  0.3667550  0.0675060  0.3843810  )
        29           Zr  tau(  29) = (  0.2658580  0.2188980  0.5456370  )
        30           Cu  tau(  30) = (  0.3727640  0.2269500  0.7541460  )
        31           Zr  tau(  31) = (  0.4909010  0.0266550  0.8215010  )
        32           Zr  tau(  32) = (  0.3344380  0.1538590  0.9755560  )
        33           Zr  tau(  33) = (  0.5010310  0.4176720  0.0356180  )
        34           Al  tau(  34) = (  0.3891260  0.4541170  0.2506940  )
        35           Cu  tau(  35) = (  0.4270120  0.3295000  0.4181220  )
        36           Cu  tau(  36) = (  0.2812900  0.4786180  0.4547210  )
        37           Zr  tau(  37) = (  0.4431220  0.4213950  0.6301280  )
        38           Zr  tau(  38) = (  0.3330890  0.4543610  0.8486030  )
        39           Cu  tau(  39) = (  0.3161030  0.5456970  0.0742360  )
        40           Zr  tau(  40) = (  0.2556010  0.6436620  0.3018270  )
        41           Zr  tau(  41) = (  0.4786970  0.5775920  0.4392130  )
        42           Zr  tau(  42) = (  0.2806530  0.6952180  0.5536880  )
        43           Cu  tau(  43) = (  0.4540980  0.6339770  0.6937910  )
        44           Zr  tau(  44) = (  0.4302580  0.6894230  0.9390530  )
        45           Cu  tau(  45) = (  0.3223560  0.7658970  0.1068750  )
        46           Zr  tau(  46) = (  0.4766140  0.9323300  0.0524910  )
        47           Zr  tau(  47) = (  0.4135570  0.8280610  0.3415760  )
        48           Zr  tau(  48) = (  0.3922520  0.9679630  0.5853350  )
        49           Cu  tau(  49) = (  0.3999990  0.8197080  0.7561930  )
        50           Zr  tau(  50) = (  0.2492660  0.9077680  0.9111820  )
        51           Zr  tau(  51) = (  0.5957130  0.1641180  0.0496730  )
        52           Zr  tau(  52) = (  0.7575530  0.0797000  0.2343880  )
        53           Cu  tau(  53) = (  0.5410490  0.1728210  0.3663910  )
        54           Zr  tau(  54) = (  0.5357240  0.1819230  0.5991130  )
        55           Zr  tau(  55) = (  0.6936450  0.1353580  0.7999840  )
        56           Cu  tau(  56) = (  0.6996980  0.4938770  0.1236250  )
        57           Zr  tau(  57) = (  0.6154380  0.3496160  0.2608670  )
        58           Cu  tau(  58) = (  0.6163860  0.3829110  0.4899580  )
        59           Zr  tau(  59) = (  0.7406390  0.3425790  0.6748370  )
        60           Zr  tau(  60) = (  0.7412480  0.3575700  0.9376560  )
        61           Cu  tau(  61) = (  0.5350970  0.2943340  0.8319010  )
        62           Zr  tau(  62) = (  0.5219300  0.6602630  0.1802780  )
        63           Cu  tau(  63) = (  0.6764360  0.5422660  0.3511770  )
        64           Cu  tau(  64) = (  0.6518880  0.7490820  0.3811960  )
        65           Zr  tau(  65) = (  0.6685970  0.5790940  0.6194550  )
        66           Cu  tau(  66) = (  0.5727900  0.5080700  0.8178100  )
        67           Cu  tau(  67) = (  0.6643170  0.6087910  0.9696280  )
        68           Cu  tau(  68) = (  0.6453030  0.7910700  0.0288590  )
        69           Cu  tau(  69) = (  0.6369180  0.8868360  0.2400110  )
        70           Zr  tau(  70) = (  0.6303260  0.9759980  0.4397490  )
        71           Cu  tau(  71) = (  0.5295050  0.7794890  0.5795060  )
        72           Cu  tau(  72) = (  0.6242650  0.9611470  0.6522980  )
        73           Zr  tau(  73) = (  0.6264570  0.7657160  0.7858100  )
        74           Cu  tau(  74) = (  0.6866730  0.9527310  0.9360050  )
        75           Cu  tau(  75) = (  0.7980740  0.2687160  0.1298460  )
        76           Zr  tau(  76) = (  1.0111800  0.0294580  0.1891070  )
        77           Zr  tau(  77) = (  0.7674370  0.2250570  0.4300980  )
        78           Cu  tau(  78) = (  0.9704410  0.0880180  0.4356580  )
        79           Zr  tau(  79) = (  0.8233740  0.0724900  0.6018010  )
        80           Cu  tau(  80) = (  0.8934150  0.2197080  0.8001380  )
        81           Zr  tau(  81) = (  0.8687050  0.0849730  0.9774930  )
        82           Zr  tau(  82) = (  0.9982840  0.2941060  0.0350030  )
        83           Zr  tau(  83) = (  0.8616490  0.4609810  0.2520130  )
        84           Cu  tau(  84) = (  0.8132930  0.4350980  0.4791560  )
        85           Zr  tau(  85) = (  0.9981660  0.2752820  0.5806030  )
        86           Cu  tau(  86) = (  0.9756890  0.4038440  0.8175500  )
        87           Zr  tau(  87) = (  0.9133460  0.5484550  0.0248790  )
        88           Zr  tau(  88) = (  0.7753420  0.6984470  0.1916040  )
        89           Al  tau(  89) = (  1.0048900  0.6548750  0.2477300  )
        90           Zr  tau(  90) = (  0.8636860  0.6537190  0.4614320  )
        91           Cu  tau(  91) = (  0.9239290  0.4981350  0.6420570  )
        92           Cu  tau(  92) = (  0.8484040  0.7178360  0.7012020  )
        93           Cu  tau(  93) = (  0.7838010  0.5560280  0.8199790  )
        94           Cu  tau(  94) = (  0.9491700  0.8012760  0.1273720  )
        95           Cu  tau(  95) = (  0.7960670  0.9101280  0.1001260  )
        96           Zr  tau(  96) = (  0.8820060  0.8729030  0.3447760  )
        97           Zr  tau(  97) = (  0.9756070  0.8735870  0.5854800  )
        98           Cu  tau(  98) = (  0.7438140  0.8240090  0.5722210  )
        99           Cu  tau(  99) = (  0.8036460  0.9168100  0.7614030  )
       100           Zr  tau( 100) = (  0.8574510  0.7776480  0.9154230  )

     number of k points=     8  Fermi-Dirac smearing, width (Ry)=  0.0080
                       cart. coord. in units 2pi/alat
        k(    1) = (   0.2500000   0.2500000   0.2500000), wk =   0.2500000
        k(    2) = (   0.2500000   0.2500000  -0.2500000), wk =   0.2500000
        k(    3) = (   0.2500000  -0.2500000   0.2500000), wk =   0.2500000
        k(    4) = (   0.2500000  -0.2500000  -0.2500000), wk =   0.2500000
        k(    5) = (  -0.2500000   0.2500000   0.2500000), wk =   0.2500000
        k(    6) = (  -0.2500000   0.2500000  -0.2500000), wk =   0.2500000
        k(    7) = (  -0.2500000  -0.2500000   0.2500000), wk =   0.2500000
        k(    8) = (  -0.2500000  -0.2500000  -0.2500000), wk =   0.2500000

                       cryst. coord.
        k(    1) = (   0.2500000   0.2500000   0.2500000), wk =   0.2500000
        k(    2) = (   0.2500000   0.2500000  -0.2500000), wk =   0.2500000
        k(    3) = (   0.2500000  -0.2500000   0.2500000), wk =   0.2500000
        k(    4) = (   0.2500000  -0.2500000  -0.2500000), wk =   0.2500000
        k(    5) = (  -0.2500000   0.2500000   0.2500000), wk =   0.2500000
        k(    6) = (  -0.2500000   0.2500000  -0.2500000), wk =   0.2500000
        k(    7) = (  -0.2500000  -0.2500000   0.2500000), wk =   0.2500000
        k(    8) = (  -0.2500000  -0.2500000  -0.2500000), wk =   0.2500000

     Dense  grid:  2627583 G-vectors     FFT dimensions: ( 180, 180, 180)

     Smooth grid:   929241 G-vectors     FFT dimensions: ( 125, 125, 125)

     Dynamical RAM for                 wfc:      80.19 MB

     Dynamical RAM for     wfc (w. buffer):      80.19 MB

     Dynamical RAM for           str. fact:       5.01 MB

     Dynamical RAM for           local pot:       0.00 MB

     Dynamical RAM for          nlocal pot:     131.43 MB

     Dynamical RAM for                qrad:      20.58 MB

     Dynamical RAM for          rho,v,vnew:      10.94 MB

     Dynamical RAM for               rhoin:       3.65 MB

     Dynamical RAM for            rho*nmix:      26.73 MB

     Dynamical RAM for           G-vectors:       6.56 MB

     Dynamical RAM for          h,s,v(r/c):      95.98 MB

     Dynamical RAM for          <psi|beta>:      29.50 MB

     Dynamical RAM for                 psi:     320.75 MB

     Dynamical RAM for                hpsi:     320.75 MB

     Dynamical RAM for                spsi:     320.75 MB

     Dynamical RAM for      wfcinit/wfcrot:     197.10 MB

     Dynamical RAM for           addusdens:     392.59 MB

     Dynamical RAM for          addusforce:     809.79 MB

     Estimated static dynamical RAM per process >     301.66 MB

     Estimated max dynamical RAM per process >       1.36 GB

     Estimated total dynamical RAM >     260.51 GB

     Initial potential from superposition of free atoms

     starting charge 1524.87645, renormalised to 1525.00000
     Starting wfc are 1135 randomized atomic wfcs
     Checking if some PAW data can be deallocated... 
       PAW data deallocated on  188 nodes for type:  1
       PAW data deallocated on   99 nodes for type:  2
       PAW data deallocated on   97 nodes for type:  3

     total cpu time spent up to now is       39.0 secs

     Self-consistent Calculation

     iteration #  1     ecut=    70.00 Ry     beta= 0.40
     Davidson diagonalization with overlap
     ethr =  1.00E-02,  avg # of iterations =  4.0

     total cpu time spent up to now is      246.7 secs

     total energy              =  -38836.42362040 Ry
     Harris-Foulkes estimate   =  -39003.02995993 Ry
     estimated scf accuracy    <     270.94019051 Ry

     iteration #  2     ecut=    70.00 Ry     beta= 0.40
     Davidson diagonalization with overlap
     ethr =  1.00E-02,  avg # of iterations =  3.0

     total cpu time spent up to now is      474.9 secs

     total energy              =  -38880.21504414 Ry
     Harris-Foulkes estimate   =  -39184.89309561 Ry
     estimated scf accuracy    <    1500.99210569 Ry

     iteration #  3     ecut=    70.00 Ry     beta= 0.40
     Davidson diagonalization with overlap
     ethr =  1.00E-02,  avg # of iterations =  3.0

     total cpu time spent up to now is      641.8 secs

     total energy              =  -38949.38836542 Ry
     Harris-Foulkes estimate   =  -39071.06682120 Ry
     estimated scf accuracy    <     953.28252204 Ry

     iteration #  4     ecut=    70.00 Ry     beta= 0.40
     Davidson diagonalization with overlap
     ethr =  1.00E-02,  avg # of iterations =  3.0

     total cpu time spent up to now is      777.0 secs

     total energy              =  -38991.22187610 Ry
     Harris-Foulkes estimate   =  -39017.50306240 Ry
     estimated scf accuracy    <     183.75433216 Ry

     iteration #  5     ecut=    70.00 Ry     beta= 0.40
     Davidson diagonalization with overlap
     ethr =  1.00E-02,  avg # of iterations =  1.6

     total cpu time spent up to now is      883.6 secs

     total energy              =  -38994.76118802 Ry
     Harris-Foulkes estimate   =  -39002.45084573 Ry
     estimated scf accuracy    <      98.00310773 Ry

     iteration #  6     ecut=    70.00 Ry     beta= 0.40
     Davidson diagonalization with overlap
     ethr =  6.43E-03,  avg # of iterations =  1.0

     total cpu time spent up to now is      980.6 secs

     total energy              =  -38993.67529225 Ry
     Harris-Foulkes estimate   =  -38998.87849241 Ry
     estimated scf accuracy    <      76.12087336 Ry

     iteration #  7     ecut=    70.00 Ry     beta= 0.40
     Davidson diagonalization with overlap
     ethr =  4.99E-03,  avg # of iterations =  1.0

     total cpu time spent up to now is     1077.7 secs

     total energy              =  -38992.04829314 Ry
     Harris-Foulkes estimate   =  -38995.34365498 Ry
     estimated scf accuracy    <      37.84219919 Ry

     iteration #  8     ecut=    70.00 Ry     beta= 0.40
     Davidson diagonalization with overlap
     ethr =  2.48E-03,  avg # of iterations =  1.0

     total cpu time spent up to now is     1174.7 secs

     total energy              =  -38990.41499866 Ry
     Harris-Foulkes estimate   =  -38993.02767425 Ry
     estimated scf accuracy    <      30.48192199 Ry

     iteration #  9     ecut=    70.00 Ry     beta= 0.40
     Davidson diagonalization with overlap
     ethr =  2.00E-03,  avg # of iterations =  1.0

     total cpu time spent up to now is     1272.1 secs

     total energy              =  -38989.63615344 Ry
     Harris-Foulkes estimate   =  -38991.45995655 Ry
     estimated scf accuracy    <      17.10203344 Ry

     iteration # 10     ecut=    70.00 Ry     beta= 0.40
     Davidson diagonalization with overlap
     ethr =  1.12E-03,  avg # of iterations =  1.0

     total cpu time spent up to now is     1369.1 secs

     total energy              =  -38988.54126011 Ry
     Harris-Foulkes estimate   =  -38990.33048662 Ry
     estimated scf accuracy    <       5.47942266 Ry

     iteration # 11     ecut=    70.00 Ry     beta= 0.40
     Davidson diagonalization with overlap
     ethr =  3.59E-04,  avg # of iterations =  4.6

     total cpu time spent up to now is     1544.1 secs

     total energy              =  -38988.34273022 Ry
     Harris-Foulkes estimate   =  -38990.91667686 Ry
     estimated scf accuracy    <      23.87545171 Ry

     iteration # 12     ecut=    70.00 Ry     beta= 0.40
     Davidson diagonalization with overlap
     ethr =  3.59E-04,  avg # of iterations =  2.8

     total cpu time spent up to now is     1664.9 secs

     total energy              =  -38989.12115799 Ry
     Harris-Foulkes estimate   =  -38990.31743225 Ry
     estimated scf accuracy    <      13.78908410 Ry

     iteration # 13     ecut=    70.00 Ry     beta= 0.40
     Davidson diagonalization with overlap
     ethr =  3.59E-04,  avg # of iterations =  2.2

     total cpu time spent up to now is     1782.8 secs

     total energy              =  -38989.54201111 Ry
     Harris-Foulkes estimate   =  -38990.08489988 Ry
     estimated scf accuracy    <       7.46986123 Ry

     iteration # 14     ecut=    70.00 Ry     beta= 0.40
     Davidson diagonalization with overlap
     ethr =  3.59E-04,  avg # of iterations =  1.0

     total cpu time spent up to now is     1880.1 secs

     total energy              =  -38989.75158150 Ry
     Harris-Foulkes estimate   =  -38989.84885184 Ry
     estimated scf accuracy    <       0.86797995 Ry

     iteration # 15     ecut=    70.00 Ry     beta= 0.40
     Davidson diagonalization with overlap
     ethr =  5.69E-05,  avg # of iterations =  2.0

     total cpu time spent up to now is     1988.0 secs

     total energy              =  -38989.77902820 Ry
     Harris-Foulkes estimate   =  -38989.82615875 Ry
     estimated scf accuracy    <       0.73455748 Ry

     iteration # 16     ecut=    70.00 Ry     beta= 0.40
     Davidson diagonalization with overlap
     ethr =  4.82E-05,  avg # of iterations =  1.5

     total cpu time spent up to now is     2095.1 secs

     total energy              =  -38989.75738035 Ry
     Harris-Foulkes estimate   =  -38989.84750266 Ry
     estimated scf accuracy    <       1.46956222 Ry

     iteration # 17     ecut=    70.00 Ry     beta= 0.40
     Davidson diagonalization with overlap
     ethr =  4.82E-05,  avg # of iterations =  2.4

     total cpu time spent up to now is     2232.6 secs

     total energy              =  -38989.76779108 Ry
     Harris-Foulkes estimate   =  -38989.84711657 Ry
     estimated scf accuracy    <       1.34436680 Ry

     iteration # 18     ecut=    70.00 Ry     beta= 0.40
     Davidson diagonalization with overlap
     ethr =  4.82E-05,  avg # of iterations =  1.5

     total cpu time spent up to now is     2349.3 secs

     total energy              =  -38989.79109459 Ry
     Harris-Foulkes estimate   =  -38989.81586447 Ry
     estimated scf accuracy    <       0.32411696 Ry

     iteration # 19     ecut=    70.00 Ry     beta= 0.40
     Davidson diagonalization with overlap
     ethr =  2.13E-05,  avg # of iterations =  1.2

     total cpu time spent up to now is     2455.7 secs

     total energy              =  -38989.79172426 Ry
     Harris-Foulkes estimate   =  -38989.81395780 Ry
     estimated scf accuracy    <       0.19118084 Ry

     iteration # 20     ecut=    70.00 Ry     beta= 0.40
     Davidson diagonalization with overlap
     ethr =  1.25E-05,  avg # of iterations =  1.5

     total cpu time spent up to now is     2562.0 secs

     total energy              =  -38989.77561422 Ry
     Harris-Foulkes estimate   =  -38989.81399572 Ry
     estimated scf accuracy    <       0.36145626 Ry

     iteration # 21     ecut=    70.00 Ry     beta= 0.40
     Davidson diagonalization with overlap
     ethr =  1.25E-05,  avg # of iterations =  5.6

     total cpu time spent up to now is     2753.1 secs

     total energy              =  -38989.75413024 Ry
     Harris-Foulkes estimate   =  -38989.84421010 Ry
     estimated scf accuracy    <       1.10159655 Ry

     iteration # 22     ecut=    70.00 Ry     beta= 0.40
     Davidson diagonalization with overlap
     ethr =  1.25E-05,  avg # of iterations =  4.5

     total cpu time spent up to now is     2907.7 secs

     total energy              =  -38989.79062175 Ry
     Harris-Foulkes estimate   =  -38989.81353364 Ry
     estimated scf accuracy    <       0.31879052 Ry

     iteration # 23     ecut=    70.00 Ry     beta= 0.40
     Davidson diagonalization with overlap
     ethr =  1.25E-05,  avg # of iterations =  1.2

     total cpu time spent up to now is     3013.9 secs

     total energy              =  -38989.79871314 Ry
     Harris-Foulkes estimate   =  -38989.80636369 Ry
     estimated scf accuracy    <       0.11026821 Ry

     iteration # 24     ecut=    70.00 Ry     beta= 0.40
     Davidson diagonalization with overlap
     ethr =  7.23E-06,  avg # of iterations =  1.0

     total cpu time spent up to now is     3110.6 secs

     total energy              =  -38989.80151134 Ry
     Harris-Foulkes estimate   =  -38989.80393379 Ry
     estimated scf accuracy    <       0.02157427 Ry

     iteration # 25     ecut=    70.00 Ry     beta= 0.40
     Davidson diagonalization with overlap
     ethr =  1.41E-06,  avg # of iterations =  4.8

     total cpu time spent up to now is     3269.6 secs

     total energy              =  -38989.80012752 Ry
     Harris-Foulkes estimate   =  -38989.80524997 Ry
     estimated scf accuracy    <       0.07109097 Ry

     iteration # 26     ecut=    70.00 Ry     beta= 0.40
     Davidson diagonalization with overlap
     ethr =  1.41E-06,  avg # of iterations =  3.2

     total cpu time spent up to now is     3397.4 secs

     total energy              =  -38989.80090850 Ry
     Harris-Foulkes estimate   =  -38989.80470861 Ry
     estimated scf accuracy    <       0.06316999 Ry

     iteration # 27     ecut=    70.00 Ry     beta= 0.40
     Davidson diagonalization with overlap
     ethr =  1.41E-06,  avg # of iterations =  1.6

     total cpu time spent up to now is     3503.9 secs

     total energy              =  -38989.80167412 Ry
     Harris-Foulkes estimate   =  -38989.80395393 Ry
     estimated scf accuracy    <       0.03763438 Ry

     iteration # 28     ecut=    70.00 Ry     beta= 0.40
     Davidson diagonalization with overlap
     ethr =  1.41E-06,  avg # of iterations =  1.0

     total cpu time spent up to now is     3600.6 secs

     total energy              =  -38989.80156408 Ry
     Harris-Foulkes estimate   =  -38989.80413714 Ry
     estimated scf accuracy    <       0.03433679 Ry

     iteration # 29     ecut=    70.00 Ry     beta= 0.40
     Davidson diagonalization with overlap
     ethr =  1.41E-06,  avg # of iterations =  1.0

     total cpu time spent up to now is     3697.7 secs

     total energy              =  -38989.80219353 Ry
     Harris-Foulkes estimate   =  -38989.80368837 Ry
     estimated scf accuracy    <       0.01966223 Ry

     iteration # 30     ecut=    70.00 Ry     beta= 0.40
     Davidson diagonalization with overlap
     ethr =  1.29E-06,  avg # of iterations =  1.0

     total cpu time spent up to now is     3794.5 secs

     total energy              =  -38989.80238955 Ry
     Harris-Foulkes estimate   =  -38989.80351328 Ry
     estimated scf accuracy    <       0.01540330 Ry

     iteration # 31     ecut=    70.00 Ry     beta= 0.40
     Davidson diagonalization with overlap
     ethr =  1.01E-06,  avg # of iterations =  1.0

     total cpu time spent up to now is     3891.2 secs

     total energy              =  -38989.80280676 Ry
     Harris-Foulkes estimate   =  -38989.80310800 Ry
     estimated scf accuracy    <       0.00342643 Ry

     iteration # 32     ecut=    70.00 Ry     beta= 0.40
     Davidson diagonalization with overlap
     ethr =  2.25E-07,  avg # of iterations =  1.0

     total cpu time spent up to now is     3988.0 secs

     total energy              =  -38989.80272343 Ry
     Harris-Foulkes estimate   =  -38989.80320876 Ry
     estimated scf accuracy    <       0.00598427 Ry

     iteration # 33     ecut=    70.00 Ry     beta= 0.40
     Davidson diagonalization with overlap
     ethr =  2.25E-07,  avg # of iterations =  1.0

     total cpu time spent up to now is     4084.6 secs

     total energy              =  -38989.80273384 Ry
     Harris-Foulkes estimate   =  -38989.80323410 Ry
     estimated scf accuracy    <       0.00791767 Ry

     iteration # 34     ecut=    70.00 Ry     beta= 0.40
     Davidson diagonalization with overlap
     ethr =  2.25E-07,  avg # of iterations =  1.0

     total cpu time spent up to now is     4181.8 secs

     total energy              =  -38989.80292639 Ry
     Harris-Foulkes estimate   =  -38989.80306377 Ry
     estimated scf accuracy    <       0.00136740 Ry

     iteration # 35     ecut=    70.00 Ry     beta= 0.40
     Davidson diagonalization with overlap
     ethr =  8.97E-08,  avg # of iterations =  1.0

     total cpu time spent up to now is     4279.0 secs

     total energy              =  -38989.80291767 Ry
     Harris-Foulkes estimate   =  -38989.80308200 Ry
     estimated scf accuracy    <       0.00228077 Ry

     iteration # 36     ecut=    70.00 Ry     beta= 0.40
     Davidson diagonalization with overlap
     ethr =  8.97E-08,  avg # of iterations =  1.0

     total cpu time spent up to now is     4375.8 secs

     total energy              =  -38989.80293303 Ry
     Harris-Foulkes estimate   =  -38989.80307338 Ry
     estimated scf accuracy    <       0.00221625 Ry

     iteration # 37     ecut=    70.00 Ry     beta= 0.40
     Davidson diagonalization with overlap
     ethr =  8.97E-08,  avg # of iterations =  1.0

     total cpu time spent up to now is     4472.6 secs

     total energy              =  -38989.80296496 Ry
     Harris-Foulkes estimate   =  -38989.80304757 Ry
     estimated scf accuracy    <       0.00123191 Ry

     iteration # 38     ecut=    70.00 Ry     beta= 0.40
     Davidson diagonalization with overlap
     ethr =  8.08E-08,  avg # of iterations =  1.0

     total cpu time spent up to now is     4569.3 secs

     total energy              =  -38989.80297243 Ry
     Harris-Foulkes estimate   =  -38989.80304781 Ry
     estimated scf accuracy    <       0.00128833 Ry

     iteration # 39     ecut=    70.00 Ry     beta= 0.40
     Davidson diagonalization with overlap
     ethr =  8.08E-08,  avg # of iterations =  1.0

     total cpu time spent up to now is     4666.0 secs

     total energy              =  -38989.80298910 Ry
     Harris-Foulkes estimate   =  -38989.80303418 Ry
     estimated scf accuracy    <       0.00062219 Ry

     iteration # 40     ecut=    70.00 Ry     beta= 0.40
     Davidson diagonalization with overlap
     ethr =  4.08E-08,  avg # of iterations =  1.0

     total cpu time spent up to now is     4762.7 secs

     total energy              =  -38989.80300421 Ry
     Harris-Foulkes estimate   =  -38989.80302414 Ry
     estimated scf accuracy    <       0.00025259 Ry

     iteration # 41     ecut=    70.00 Ry     beta= 0.40
     Davidson diagonalization with overlap
     ethr =  1.66E-08,  avg # of iterations =  1.0

     total cpu time spent up to now is     4859.7 secs

     total energy              =  -38989.80301161 Ry
     Harris-Foulkes estimate   =  -38989.80301900 Ry
     estimated scf accuracy    <       0.00007204 Ry

     iteration # 42     ecut=    70.00 Ry     beta= 0.40
     Davidson diagonalization with overlap
     ethr =  4.72E-09,  avg # of iterations =  1.0

     total cpu time spent up to now is     4956.3 secs

     total energy              =  -38989.80300968 Ry
     Harris-Foulkes estimate   =  -38989.80302262 Ry
     estimated scf accuracy    <       0.00018577 Ry

     iteration # 43     ecut=    70.00 Ry     beta= 0.40
     Davidson diagonalization with overlap
     ethr =  4.72E-09,  avg # of iterations =  1.0

     total cpu time spent up to now is     5052.9 secs

     total energy              =  -38989.80301042 Ry
     Harris-Foulkes estimate   =  -38989.80302184 Ry
     estimated scf accuracy    <       0.00014455 Ry

     iteration # 44     ecut=    70.00 Ry     beta= 0.40
     Davidson diagonalization with overlap
     ethr =  4.72E-09,  avg # of iterations =  1.0

     total cpu time spent up to now is     5149.5 secs

     total energy              =  -38989.80301222 Ry
     Harris-Foulkes estimate   =  -38989.80302113 Ry
     estimated scf accuracy    <       0.00012915 Ry

     iteration # 45     ecut=    70.00 Ry     beta= 0.40
     Davidson diagonalization with overlap
     ethr =  4.72E-09,  avg # of iterations =  1.0

     total cpu time spent up to now is     5246.2 secs

     total energy              =  -38989.80301374 Ry
     Harris-Foulkes estimate   =  -38989.80302033 Ry
     estimated scf accuracy    <       0.00009995 Ry

     iteration # 46     ecut=    70.00 Ry     beta= 0.40
     Davidson diagonalization with overlap
     ethr =  4.72E-09,  avg # of iterations =  1.0

     total cpu time spent up to now is     5343.4 secs

     total energy              =  -38989.80301411 Ry
     Harris-Foulkes estimate   =  -38989.80302008 Ry
     estimated scf accuracy    <       0.00008400 Ry

     iteration # 47     ecut=    70.00 Ry     beta= 0.40
     Davidson diagonalization with overlap
     ethr =  4.72E-09,  avg # of iterations =  1.0

     total cpu time spent up to now is     5440.5 secs

     total energy              =  -38989.80301479 Ry
     Harris-Foulkes estimate   =  -38989.80302000 Ry
     estimated scf accuracy    <       0.00008470 Ry

     iteration # 48     ecut=    70.00 Ry     beta= 0.40
     Davidson diagonalization with overlap
     ethr =  4.72E-09,  avg # of iterations =  1.0

     total cpu time spent up to now is     5537.2 secs

     total energy              =  -38989.80301522 Ry
     Harris-Foulkes estimate   =  -38989.80302003 Ry
     estimated scf accuracy    <       0.00008982 Ry

     iteration # 49     ecut=    70.00 Ry     beta= 0.40
     Davidson diagonalization with overlap
     ethr =  4.72E-09,  avg # of iterations =  1.0

     total cpu time spent up to now is     5633.9 secs

     total energy              =  -38989.80301661 Ry
     Harris-Foulkes estimate   =  -38989.80301876 Ry
     estimated scf accuracy    <       0.00002817 Ry

     iteration # 50     ecut=    70.00 Ry     beta= 0.40
     Davidson diagonalization with overlap
     ethr =  1.85E-09,  avg # of iterations =  1.0

     total cpu time spent up to now is     5730.6 secs

     total energy              =  -38989.80301714 Ry
     Harris-Foulkes estimate   =  -38989.80301855 Ry
     estimated scf accuracy    <       0.00002149 Ry

     iteration # 51     ecut=    70.00 Ry     beta= 0.40
     Davidson diagonalization with overlap
     ethr =  1.41E-09,  avg # of iterations =  1.0

     total cpu time spent up to now is     5827.4 secs

     total energy              =  -38989.80301766 Ry
     Harris-Foulkes estimate   =  -38989.80301824 Ry
     estimated scf accuracy    <       0.00000726 Ry

     iteration # 52     ecut=    70.00 Ry     beta= 0.40
     Davidson diagonalization with overlap
     ethr =  4.76E-10,  avg # of iterations =  1.0

     total cpu time spent up to now is     5924.0 secs

     total energy              =  -38989.80301783 Ry
     Harris-Foulkes estimate   =  -38989.80301824 Ry
     estimated scf accuracy    <       0.00000471 Ry

     iteration # 53     ecut=    70.00 Ry     beta= 0.40
     Davidson diagonalization with overlap
     ethr =  3.09E-10,  avg # of iterations =  1.0

     total cpu time spent up to now is     6021.0 secs

     total energy              =  -38989.80301782 Ry
     Harris-Foulkes estimate   =  -38989.80301827 Ry
     estimated scf accuracy    <       0.00000550 Ry

     iteration # 54     ecut=    70.00 Ry     beta= 0.40
     Davidson diagonalization with overlap
     ethr =  3.09E-10,  avg # of iterations =  1.0

     total cpu time spent up to now is     6117.7 secs

     total energy              =  -38989.80301783 Ry
     Harris-Foulkes estimate   =  -38989.80301833 Ry
     estimated scf accuracy    <       0.00000784 Ry

     iteration # 55     ecut=    70.00 Ry     beta= 0.40
     Davidson diagonalization with overlap
     ethr =  3.09E-10,  avg # of iterations =  1.0

     total cpu time spent up to now is     6214.3 secs

     total energy              =  -38989.80301795 Ry
     Harris-Foulkes estimate   =  -38989.80301826 Ry
     estimated scf accuracy    <       0.00000482 Ry

     iteration # 56     ecut=    70.00 Ry     beta= 0.40
     Davidson diagonalization with overlap
     ethr =  3.09E-10,  avg # of iterations =  1.0

     total cpu time spent up to now is     6310.9 secs

     total energy              =  -38989.80301799 Ry
     Harris-Foulkes estimate   =  -38989.80301826 Ry
     estimated scf accuracy    <       0.00000355 Ry

     iteration # 57     ecut=    70.00 Ry     beta= 0.40
     Davidson diagonalization with overlap
     ethr =  2.33E-10,  avg # of iterations =  1.0

     total cpu time spent up to now is     6407.5 secs

     total energy              =  -38989.80301798 Ry
     Harris-Foulkes estimate   =  -38989.80301831 Ry
     estimated scf accuracy    <       0.00000582 Ry

     iteration # 58     ecut=    70.00 Ry     beta= 0.40
     Davidson diagonalization with overlap
     ethr =  2.33E-10,  avg # of iterations =  1.0

     total cpu time spent up to now is     6504.5 secs

     total energy              =  -38989.80301802 Ry
     Harris-Foulkes estimate   =  -38989.80301828 Ry
     estimated scf accuracy    <       0.00000475 Ry

     iteration # 59     ecut=    70.00 Ry     beta= 0.40
     Davidson diagonalization with overlap
     ethr =  2.33E-10,  avg # of iterations =  1.0

     total cpu time spent up to now is     6601.1 secs

     total energy              =  -38989.80301810 Ry
     Harris-Foulkes estimate   =  -38989.80301822 Ry
     estimated scf accuracy    <       0.00000155 Ry

     iteration # 60     ecut=    70.00 Ry     beta= 0.40
     Davidson diagonalization with overlap
     ethr =  1.02E-10,  avg # of iterations =  1.0

     total cpu time spent up to now is     6698.1 secs

     total energy              =  -38989.80301811 Ry
     Harris-Foulkes estimate   =  -38989.80301823 Ry
     estimated scf accuracy    <       0.00000213 Ry

     iteration # 61     ecut=    70.00 Ry     beta= 0.40
     Davidson diagonalization with overlap
     ethr =  1.02E-10,  avg # of iterations =  1.0

     total cpu time spent up to now is     6794.5 secs

     End of self-consistent calculation

          k = 0.2500 0.2500 0.2500 (116159 PWs)   bands (ev):

   -98.6193 -98.5896 -98.5110 -98.4770 -98.4752 -98.4715 -98.4447 -98.4435
   -98.4392 -98.4317 -98.4038 -98.3974 -98.3955 -98.3953 -98.3946 -98.3861
   -98.3729 -98.3664 -98.3557 -98.3530 -98.3510 -98.3504 -98.3363 -98.3328
   -98.3077 -98.3000 -98.2980 -98.2794 -98.2763 -98.2714 -98.2467 -98.2395
   -98.2296 -98.2258 -98.2106 -98.1783 -98.1707 -98.1651 -98.1539 -98.1415
   -98.1370 -98.1318 -98.1190 -98.1178 -98.1119 -98.0966 -98.0940 -98.0578
   -98.0292 -56.0060 -55.9976 -55.9670 -55.9344 -55.9237 -55.9214 -55.8754
   -55.8724 -55.8722 -55.8595 -55.8514 -55.8514 -55.8397 -55.8318 -55.8173
   -55.8097 -55.8071 -55.8027 -55.8026 -55.8022 -55.7965 -55.7964 -55.7901
   -55.7893 -55.7844 -55.7801 -55.7741 -55.7691 -55.7683 -55.7669 -55.7604
   -55.7604 -55.7600 -55.7592 -55.7578 -55.7549 -55.7522 -55.7521 -55.7473
   -55.7473 -55.7469 -55.7459 -55.7343 -55.7290 -55.7286 -55.7228 -55.7140
   -55.7076 -55.7064 -55.7043 -55.7031 -55.7011 -55.6969 -55.6949 -55.6946
   -55.6944 -55.6906 -55.6888 -55.6845 -55.6814 -55.6793 -55.6769 -55.6747
   -55.6691 -55.6650 -55.6616 -55.6600 -55.6569 -55.6529 -55.6507 -55.6505
   -55.6491 -55.6485 -55.6475 -55.6454 -55.6377 -55.6361 -55.6334 -55.6332
   -55.6310 -55.6299 -55.6288 -55.6261 -55.6247 -55.6196 -55.6088 -55.6055
   -55.6033 -55.5983 -55.5968 -55.5887 -55.5835 -55.5747 -55.5720 -55.5661
   -55.5657 -55.5631 -55.5602 -55.5502 -55.5468 -55.5468 -55.5435 -55.5430
   -55.5377 -55.5357 -55.5339 -55.5337 -55.5311 -55.5246 -55.5185 -55.5158
   -55.5147 -55.5095 -55.5070 -55.5052 -55.5037 -55.5023 -55.4935 -55.4922
   -55.4879 -55.4867 -55.4831 -55.4703 -55.4687 -55.4664 -55.4633 -55.4631
   -55.4564 -55.4460 -55.4444 -55.4431 -55.4422 -55.4357 -55.4339 -55.4315
   -55.4202 -55.4185 -55.4149 -55.4123 -55.4113 -55.3955 -55.3892 -55.3857
   -55.3784 -55.3697 -55.3676 -55.3448 -34.3628 -34.2094 -34.1666 -34.1603
   -34.1463 -34.0869 -34.0752 -34.0697 -34.0689 -34.0666 -34.0598 -34.0547
   -34.0471 -34.0353 -34.0326 -34.0091 -33.9969 -33.9907 -33.9842 -33.9799
   -33.9738 -33.9677 -33.9526 -33.9515 -33.9492 -33.9396 -33.9345 -33.9263
   -33.9192 -33.9084 -33.9076 -33.9012 -33.8957 -33.8839 -33.8732 -33.8657
   -33.8401 -33.8355 -33.8311 -33.8132 -33.8068 -33.7875 -33.7706 -33.7413
   -33.7069 -33.6919 -33.6663 -33.5701 -33.4810 -12.4561 -12.4468 -12.4306
   -12.4258 -12.4192 -12.4120 -12.4038 -12.4020 -12.3997 -12.3834 -12.3757
   -12.3688 -12.3605 -12.3579 -12.3490 -12.3436 -12.3386 -12.3347 -12.3281
   -12.3258 -12.3186 -12.3159 -12.3047 -12.2984 -12.2951 -12.2913 -12.2813
   -12.2725 -12.2702 -12.2643 -12.2588 -12.2522 -12.2463 -12.2446 -12.2381
   -12.2339 -12.2305 -12.2242 -12.2137 -12.2102 -12.2089 -12.2032 -12.1936
   -12.1899 -12.1878 -12.1793 -12.1704 -12.1651 -12.1584 -12.1546 -12.1532
   -12.1462 -12.1445 -12.1351 -12.1296 -12.1256 -12.1171 -12.1112 -12.1098
   -12.1039 -12.0962 -12.0922 -12.0837 -12.0775 -12.0714 -12.0652 -12.0636
   -12.0550 -12.0530 -12.0469 -12.0427 -12.0376 -12.0289 -12.0236 -12.0171
   -12.0100 -12.0019 -11.9989 -11.9921 -11.9864 -11.9791 -11.9744 -11.9711
   -11.9682 -11.9594 -11.9547 -11.9486 -11.9426 -11.9399 -11.9333 -11.9288
   -11.9216 -11.9155 -11.9066 -11.9027 -11.8946 -11.8890 -11.8814 -11.8787
   -11.8761 -11.8730 -11.8665 -11.8624 -11.8562 -11.8521 -11.8472 -11.8412
   -11.8398 -11.8359 -11.8213 -11.8136 -11.8115 -11.8062 -11.8003 -11.7929
   -11.7869 -11.7813 -11.7726 -11.7666 -11.7574 -11.7540 -11.7503 -11.7405
   -11.7335 -11.7267 -11.7177 -11.7129 -11.7048 -11.6927 -11.6670 -11.6574
   -11.6525 -11.6415 -11.6330 -11.6294 -11.6172 -11.6105 -11.5678 -11.5315
   -11.5251 -11.5046 -11.4907 -11.4515 -11.4477 -11.4052 -11.3931 -11.3367
     7.3343   7.6711   7.8547   8.1534   8.3478   8.4700   8.6871   8.8448
     8.9069   8.9906   9.1697   9.2885   9.3371   9.4047   9.4774   9.6268
     9.6947   9.7665   9.7863   9.9256   9.9527  10.0093  10.0560  10.0815
    10.1238  10.1691  10.1925  10.2313  10.2747  10.3096  10.3352  10.3443
    10.3689  10.3918  10.4078  10.4146  10.4256  10.4557  10.4661  10.4807
    10.4898  10.5047  10.5222  10.5309  10.5407  10.5656  10.5724  10.5795
    10.5915  10.6102  10.6253  10.6328  10.6439  10.6573  10.6610  10.6785
    10.6938  10.7025  10.7073  10.7108  10.7194  10.7322  10.7376  10.7487
    10.7622  10.7688  10.7772  10.7871  10.7934  10.8071  10.8120  10.8199
    10.8254  10.8370  10.8413  10.8521  10.8610  10.8644  10.8781  10.8824
    10.8875  10.8960  10.9005  10.9128  10.9192  10.9230  10.9321  10.9365
    10.9444  10.9511  10.9599  10.9670  10.9780  10.9879  10.9955  10.9988
    11.0070  11.0181  11.0245  11.0291  11.0322  11.0390  11.0467  11.0487
    11.0559  11.0617  11.0697  11.0831  11.0879  11.0950  11.0990  11.1031
    11.1118  11.1181  11.1224  11.1298  11.1425  11.1458  11.1550  11.1577
    11.1689  11.1750  11.1835  11.1870  11.1896  11.1948  11.2116  11.2165
    11.2239  11.2288  11.2377  11.2426  11.2456  11.2520  11.2563  11.2643
    11.2693  11.2810  11.2847  11.2968  11.3005  11.3083  11.3098  11.3161
    11.3209  11.3255  11.3330  11.3352  11.3444  11.3525  11.3580  11.3649
    11.3716  11.3778  11.3866  11.3945  11.3976  11.4040  11.4117  11.4180
    11.4242  11.4339  11.4381  11.4396  11.4468  11.4526  11.4571  11.4663
    11.4709  11.4788  11.4875  11.4927  11.5033  11.5080  11.5136  11.5214
    11.5253  11.5316  11.5413  11.5480  11.5526  11.5617  11.5686  11.5752
    11.5820  11.5850  11.5940  11.6038  11.6126  11.6178  11.6299  11.6421
    11.6445  11.6463  11.6615  11.6665  11.6689  11.6748  11.6849  11.6934
    11.7002  11.7093  11.7179  11.7275  11.7378  11.7403  11.7419  11.7525
    11.7617  11.7774  11.7863  11.7929  11.7977  11.8102  11.8175  11.8264
    11.8269  11.8355  11.8412  11.8536  11.8621  11.8724  11.8841  11.8894
    11.8928  11.9014  11.9080  11.9215  11.9302  11.9366  11.9494  11.9537
    11.9594  11.9669  11.9783  11.9865  11.9919  12.0062  12.0106  12.0213
    12.0298  12.0448  12.0532  12.0597  12.0665  12.0756  12.0826  12.1033
    12.1113  12.1203  12.1347  12.1414  12.1485  12.1649  12.1767  12.1845
    12.1935  12.2022  12.2065  12.2205  12.2321  12.2379  12.2500  12.2613
    12.2765  12.2894  12.2994  12.3170  12.3233  12.3460  12.3568  12.3710
    12.3840  12.4054  12.4141  12.4366  12.4526  12.4746  12.4954  12.5084
    12.5303  12.5550  12.5794  12.6040  12.6343  12.6568  12.7019  12.7117
    12.7645  12.8018  12.8240  12.8343  12.8945  12.9189  12.9490  13.0006
    13.0059  13.0328  13.0734  13.0854  13.1462  13.1858  13.2176  13.2398
    13.2779  13.3137  13.3444  13.3784  13.4127  13.4337  13.4609  13.4762
    13.5003  13.5448  13.5614  13.5982  13.6058  13.6729  13.6908  13.7069
    13.7138  13.7545  13.7774  13.7955  13.8364  13.8624  13.8852  13.8973
    13.9260  13.9554  13.9880  13.9993  14.0169  14.0395  14.0500  14.0803
    14.1002  14.1182  14.1375  14.1568  14.1850  14.1950  14.2082  14.2280
    14.2522  14.2649  14.2848  14.3148  14.3218  14.3686  14.3801  14.3921
    14.4113  14.4429  14.4680  14.4780  14.4963  14.5200  14.5424  14.5599
    14.5711  14.5903  14.6204  14.6329  14.6548  14.6785  14.6956  14.7143
    14.7371  14.7592  14.7737  14.8040  14.8218  14.8401  14.8474  14.8573
    14.8877  14.9047  14.9271  14.9363  14.9482  14.9738  14.9886  15.0070
    15.0347  15.0553  15.0679  15.0977  15.1116  15.1203  15.1391  15.1608
    15.1774  15.2070  15.2232  15.2437  15.2763  15.3048  15.3253  15.3515
    15.3606  15.3881  15.4065  15.4098  15.4430  15.4699  15.4851  15.5071
    15.5324  15.5536  15.5894  15.6102  15.6571  15.6916  15.7014  15.7296
    15.7459  15.7597  15.7829  15.8039  15.8348  15.8789  15.9049  15.9361
    15.9519  15.9920  16.0414  16.0653  16.0793  16.1186  16.1344  16.1749
    16.2042  16.2161  16.2552  16.3025  16.3226  16.3624  16.4080  16.4282
    16.4619  16.4781  16.5109  16.5324  16.5761  16.6273  16.6657  16.7156
    16.7237  16.7590  16.7868  16.8143  16.8471  16.8684  16.9020  16.9353
    16.9750  16.9918  17.0277  17.0661  17.0920  17.1255  17.1381  17.1678
    17.2021  17.2312  17.2670  17.3156  17.3225  17.3500  17.3796  17.4042
    17.4446  17.4622  17.4865  17.5153  17.5495  17.5717  17.6029  17.6336
    17.6626  17.6880  17.7193  17.7467  17.7687  17.7916  17.8201  17.8608
    17.8651  17.9084  17.9395  17.9539  17.9717  18.0053  18.0224  18.0382
    18.0749  18.1054  18.1362  18.1724  18.1938  18.2150  18.2403  18.2749
    18.2859  18.3063  18.3456  18.3470  18.3850  18.3929  18.4253  18.4517
    18.4721  18.4849  18.5114  18.5377  18.5792  18.6040  18.6514  18.6713
    18.6846  18.7057  18.7220  18.7409  18.7785  18.8080  18.8399  18.8631
    18.8818  18.9126  18.9721  18.9872  19.0319  19.0505  19.0847  19.1067
    19.1528  19.1758  19.2000  19.2571  19.2674  19.3159  19.3413  19.3686
    19.4196  19.4510  19.4757  19.5272  19.5848  19.6358  19.6650  19.6881
    19.7274  19.7700  19.8071  19.8641  19.8871  19.9095  19.9830  20.0841
    20.1413  20.1573  20.1702  20.2494  20.2868  20.3927  20.4197  20.4907
    20.5458  20.6011  20.6237  20.7014  20.7665  20.7749  20.8360  20.8833
    20.9224  20.9888  21.0694  21.0936  21.1582  21.1982  21.2511  21.2923
    21.3350  21.3505  21.4248  21.4889  21.5132  21.5706  21.6181  21.6479
    21.6930  21.7290  21.7849  21.8494  21.8617  21.8880  21.9726  22.0204
    22.0525  22.0657  22.1102  22.1418  22.1976  22.2475  22.3200  22.3373
    22.3786  22.4231  22.4756  22.5082  22.5207  22.5814  22.6147  22.6590
    22.6790  22.7359  22.7832  22.8321  22.8783  22.9106  22.9569  22.9697
    23.0095  23.0435  23.1075  23.1509  23.1866  23.2084  23.2447  23.3012
    23.3328  23.3448  23.3874  23.4426  23.5072  23.5118  23.5676  23.6155
    23.6397  23.6845  23.7176  23.7400  23.7761  23.7938  23.8213  23.8796
    23.9214  23.9442  24.0082  24.0604  24.1058  24.1515  24.1680  24.1964
    24.2328  24.2892  24.3028  24.3461  24.3918  24.3991  24.4423  24.4562
    24.5137  24.5490  24.6043  24.6271  24.6453  24.7150  24.7512  24.7761
    24.8225  24.8309  24.8635  24.8985  24.9289  24.9901  25.0167  25.0421
    25.0844  25.1957  25.2032  25.2328  25.2699  25.2973  25.3648  25.3860
    25.4187  25.4436  25.4845  25.5043  25.5472  25.5946

     occupation numbers 
     1.0000   1.0000   1.0000   1.0000   1.0000   1.0000   1.0000   1.0000
     1.0000   1.0000   1.0000   1.0000   1.0000   1.0000   1.0000   1.0000
     1.0000   1.0000   1.0000   1.0000   1.0000   1.0000   1.0000   1.0000
     1.0000   1.0000   1.0000   1.0000   1.0000   1.0000   1.0000   1.0000
     1.0000   1.0000   1.0000   1.0000   1.0000   1.0000   1.0000   1.0000
     1.0000   1.0000   1.0000   1.0000   1.0000   1.0000   1.0000   1.0000
     1.0000   1.0000   1.0000   1.0000   1.0000   1.0000   1.0000   1.0000
     1.0000   1.0000   1.0000   1.0000   1.0000   1.0000   1.0000   1.0000
     1.0000   1.0000   1.0000   1.0000   1.0000   1.0000   1.0000   1.0000
     1.0000   1.0000   1.0000   1.0000   1.0000   1.0000   1.0000   1.0000
     1.0000   1.0000   1.0000   1.0000   1.0000   1.0000   1.0000   1.0000
     1.0000   1.0000   1.0000   1.0000   1.0000   1.0000   1.0000   1.0000
     1.0000   1.0000   1.0000   1.0000   1.0000   1.0000   1.0000   1.0000
     1.0000   1.0000   1.0000   1.0000   1.0000   1.0000   1.0000   1.0000
     1.0000   1.0000   1.0000   1.0000   1.0000   1.0000   1.0000   1.0000
     1.0000   1.0000   1.0000   1.0000   1.0000   1.0000   1.0000   1.0000
     1.0000   1.0000   1.0000   1.0000   1.0000   1.0000   1.0000   1.0000
     1.0000   1.0000   1.0000   1.0000   1.0000   1.0000   1.0000   1.0000
     1.0000   1.0000   1.0000   1.0000   1.0000   1.0000   1.0000   1.0000
     1.0000   1.0000   1.0000   1.0000   1.0000   1.0000   1.0000   1.0000
     1.0000   1.0000   1.0000   1.0000   1.0000   1.0000   1.0000   1.0000
     1.0000   1.0000   1.0000   1.0000   1.0000   1.0000   1.0000   1.0000
     1.0000   1.0000   1.0000   1.0000   1.0000   1.0000   1.0000   1.0000
     1.0000   1.0000   1.0000   1.0000   1.0000   1.0000   1.0000   1.0000
     1.0000   1.0000   1.0000   1.0000   1.0000   1.0000   1.0000   1.0000
     1.0000   1.0000   1.0000   1.0000   1.0000   1.0000   1.0000   1.0000
     1.0000   1.0000   1.0000   1.0000   1.0000   1.0000   1.0000   1.0000
     1.0000   1.0000   1.0000   1.0000   1.0000   1.0000   1.0000   1.0000
     1.0000   1.0000   1.0000   1.0000   1.0000   1.0000   1.0000   1.0000
     1.0000   1.0000   1.0000   1.0000   1.0000   1.0000   1.0000   1.0000
     1.0000   1.0000   1.0000   1.0000   1.0000   1.0000   1.0000   1.0000
     1.0000   1.0000   1.0000   1.0000   1.0000   1.0000   1.0000   1.0000
     1.0000   1.0000   1.0000   1.0000   1.0000   1.0000   1.0000   1.0000
     1.0000   1.0000   1.0000   1.0000   1.0000   1.0000   1.0000   1.0000
     1.0000   1.0000   1.0000   1.0000   1.0000   1.0000   1.0000   1.0000
     1.0000   1.0000   1.0000   1.0000   1.0000   1.0000   1.0000   1.0000
     1.0000   1.0000   1.0000   1.0000   1.0000   1.0000   1.0000   1.0000
     1.0000   1.0000   1.0000   1.0000   1.0000   1.0000   1.0000   1.0000
     1.0000   1.0000   1.0000   1.0000   1.0000   1.0000   1.0000   1.0000
     1.0000   1.0000   1.0000   1.0000   1.0000   1.0000   1.0000   1.0000
     1.0000   1.0000   1.0000   1.0000   1.0000   1.0000   1.0000   1.0000
     1.0000   1.0000   1.0000   1.0000   1.0000   1.0000   1.0000   1.0000
     1.0000   1.0000   1.0000   1.0000   1.0000   1.0000   1.0000   1.0000
     1.0000   1.0000   1.0000   1.0000   1.0000   1.0000   1.0000   1.0000
     1.0000   1.0000   1.0000   1.0000   1.0000   1.0000   1.0000   1.0000
     1.0000   1.0000   1.0000   1.0000   1.0000   1.0000   1.0000   1.0000
     1.0000   1.0000   1.0000   1.0000   1.0000   1.0000   1.0000   1.0000
     1.0000   1.0000   1.0000   1.0000   1.0000   1.0000   1.0000   1.0000
     1.0000   1.0000   1.0000   1.0000   1.0000   1.0000   1.0000   1.0000
     1.0000   1.0000   1.0000   1.0000   1.0000   1.0000   1.0000   1.0000
     1.0000   1.0000   1.0000   1.0000   1.0000   1.0000   1.0000   1.0000
     1.0000   1.0000   1.0000   1.0000   1.0000   1.0000   1.0000   1.0000
     1.0000   1.0000   1.0000   1.0000   1.0000   1.0000   1.0000   1.0000
     1.0000   1.0000   1.0000   1.0000   1.0000   1.0000   1.0000   1.0000
     1.0000   1.0000   1.0000   1.0000   1.0000   1.0000   1.0000   1.0000
     1.0000   1.0000   1.0000   1.0000   1.0000   1.0000   1.0000   1.0000
     1.0000   1.0000   1.0000   1.0000   1.0000   1.0000   1.0000   1.0000
     1.0000   1.0000   1.0000   1.0000   1.0000   1.0000   1.0000   1.0000
     1.0000   1.0000   1.0000   1.0000   1.0000   1.0000   1.0000   1.0000
     1.0000   1.0000   1.0000   1.0000   1.0000   1.0000   1.0000   1.0000
     1.0000   1.0000   1.0000   1.0000   1.0000   1.0000   1.0000   1.0000
     1.0000   1.0000   1.0000   1.0000   1.0000   1.0000   1.0000   1.0000
     1.0000   1.0000   1.0000   1.0000   1.0000   1.0000   1.0000   1.0000
     1.0000   1.0000   1.0000   1.0000   1.0000   1.0000   1.0000   1.0000
     1.0000   1.0000   1.0000   1.0000   1.0000   1.0000   1.0000   1.0000
     1.0000   1.0000   1.0000   1.0000   1.0000   1.0000   1.0000   1.0000
     1.0000   1.0000   1.0000   1.0000   1.0000   1.0000   1.0000   1.0000
     1.0000   1.0000   1.0000   1.0000   1.0000   1.0000   1.0000   1.0000
     1.0000   1.0000   1.0000   1.0000   1.0000   1.0000   1.0000   1.0000
     1.0000   1.0000   1.0000   1.0000   1.0000   1.0000   1.0000   1.0000
     1.0000   1.0000   1.0000   1.0000   1.0000   1.0000   1.0000   1.0000
     1.0000   1.0000   1.0000   1.0000   1.0000   1.0000   1.0000   1.0000
     1.0000   1.0000   1.0000   1.0000   1.0000   1.0000   1.0000   1.0000
     1.0000   1.0000   1.0000   1.0000   1.0000   1.0000   1.0000   1.0000
     1.0000   1.0000   1.0000   1.0000   1.0000   1.0000   1.0000   1.0000
     1.0000   1.0000   1.0000   1.0000   1.0000   1.0000   1.0000   1.0000
     1.0000   1.0000   1.0000   1.0000   1.0000   1.0000   1.0000   1.0000
     1.0000   1.0000   1.0000   1.0000   1.0000   1.0000   1.0000   1.0000
     1.0000   1.0000   1.0000   1.0000   1.0000   1.0000   1.0000   1.0000
     1.0000   1.0000   1.0000   1.0000   1.0000   1.0000   1.0000   1.0000
     1.0000   1.0000   1.0000   1.0000   1.0000   1.0000   1.0000   1.0000
     1.0000   1.0000   1.0000   1.0000   1.0000   1.0000   1.0000   1.0000
     1.0000   1.0000   1.0000   1.0000   1.0000   1.0000   1.0000   1.0000
     1.0000   1.0000   1.0000   1.0000   1.0000   1.0000   1.0000   1.0000
     1.0000   1.0000   1.0000   1.0000   1.0000   1.0000   1.0000   1.0000
     1.0000   1.0000   1.0000   1.0000   1.0000   1.0000   1.0000   1.0000
     1.0000   1.0000   1.0000   1.0000   1.0000   1.0000   1.0000   1.0000
     1.0000   1.0000   1.0000   1.0000   1.0000   1.0000   1.0000   1.0000
     1.0000   1.0000   1.0000   1.0000   1.0000   1.0000   0.9999   0.9999
     0.9999   0.9999   0.9999   0.9999   0.9998   0.9998   0.9997   0.9997
     0.9996   0.9994   0.9992   0.9991   0.9990   0.9988   0.9986   0.9982
     0.9978   0.9974   0.9970   0.9964   0.9953   0.9948   0.9942   0.9930
     0.9913   0.9903   0.9883   0.9847   0.9837   0.9751   0.9724   0.9693
     0.9636   0.9519   0.9402   0.9348   0.9238   0.9070   0.8880   0.8710
     0.8591   0.8363   0.7948   0.7754   0.7384   0.6943   0.6600   0.6206
     0.5701   0.5198   0.4864   0.4177   0.3785   0.3397   0.3249   0.3053
     0.2494   0.2214   0.1879   0.1754   0.1601   0.1309   0.1163   0.0999
     0.0793   0.0665   0.0597   0.0460   0.0408   0.0377   0.0320   0.0263
     0.0227   0.0174   0.0150   0.0125   0.0093   0.0071   0.0059   0.0047
     0.0043   0.0033   0.0028   0.0027   0.0020   0.0016   0.0014   0.0011
     0.0009   0.0007   0.0005   0.0004   0.0003   0.0002   0.0002   0.0001
     0.0001   0.0001   0.0001   0.0001   0.0001   0.0000   0.0000   0.0000
     0.0000   0.0000   0.0000   0.0000   0.0000   0.0000   0.0000   0.0000
     0.0000   0.0000   0.0000   0.0000   0.0000   0.0000   0.0000   0.0000
     0.0000   0.0000   0.0000   0.0000   0.0000   0.0000   0.0000   0.0000
     0.0000   0.0000   0.0000   0.0000   0.0000   0.0000   0.0000   0.0000
     0.0000   0.0000   0.0000   0.0000   0.0000   0.0000   0.0000   0.0000
     0.0000   0.0000   0.0000   0.0000   0.0000   0.0000   0.0000   0.0000
     0.0000   0.0000   0.0000   0.0000   0.0000   0.0000   0.0000   0.0000
     0.0000   0.0000   0.0000   0.0000   0.0000   0.0000   0.0000   0.0000
     0.0000   0.0000   0.0000   0.0000   0.0000   0.0000   0.0000   0.0000
     0.0000   0.0000   0.0000   0.0000   0.0000   0.0000   0.0000   0.0000
     0.0000   0.0000   0.0000   0.0000   0.0000   0.0000   0.0000   0.0000
     0.0000   0.0000   0.0000   0.0000   0.0000   0.0000   0.0000   0.0000
     0.0000   0.0000   0.0000   0.0000   0.0000   0.0000   0.0000   0.0000
     0.0000   0.0000   0.0000   0.0000   0.0000   0.0000   0.0000   0.0000
     0.0000   0.0000   0.0000   0.0000   0.0000   0.0000   0.0000   0.0000
     0.0000   0.0000   0.0000   0.0000   0.0000   0.0000   0.0000   0.0000
     0.0000   0.0000   0.0000   0.0000   0.0000   0.0000   0.0000   0.0000
     0.0000   0.0000   0.0000   0.0000   0.0000   0.0000   0.0000   0.0000
     0.0000   0.0000   0.0000   0.0000   0.0000   0.0000   0.0000   0.0000
     0.0000   0.0000   0.0000   0.0000   0.0000   0.0000   0.0000   0.0000
     0.0000   0.0000   0.0000   0.0000   0.0000   0.0000   0.0000   0.0000
     0.0000   0.0000   0.0000   0.0000   0.0000   0.0000   0.0000   0.0000
     0.0000   0.0000   0.0000   0.0000   0.0000   0.0000   0.0000   0.0000
     0.0000   0.0000   0.0000   0.0000   0.0000   0.0000   0.0000   0.0000
     0.0000   0.0000   0.0000   0.0000   0.0000   0.0000   0.0000   0.0000
     0.0000   0.0000   0.0000   0.0000   0.0000   0.0000   0.0000   0.0000
     0.0000   0.0000   0.0000   0.0000   0.0000   0.0000   0.0000   0.0000
     0.0000   0.0000   0.0000   0.0000   0.0000   0.0000   0.0000   0.0000
     0.0000   0.0000   0.0000   0.0000   0.0000   0.0000   0.0000   0.0000
     0.0000   0.0000   0.0000   0.0000   0.0000   0.0000   0.0000   0.0000
     0.0000   0.0000   0.0000   0.0000   0.0000   0.0000   0.0000   0.0000
     0.0000   0.0000   0.0000   0.0000   0.0000   0.0000   0.0000   0.0000
     0.0000   0.0000   0.0000   0.0000   0.0000   0.0000   0.0000   0.0000
     0.0000   0.0000   0.0000   0.0000   0.0000   0.0000

          k = 0.2500 0.2500-0.2500 (116159 PWs)   bands (ev):

   -98.6193 -98.5896 -98.5110 -98.4770 -98.4752 -98.4715 -98.4447 -98.4435
   -98.4392 -98.4317 -98.4038 -98.3974 -98.3955 -98.3953 -98.3946 -98.3861
   -98.3729 -98.3664 -98.3557 -98.3530 -98.3510 -98.3504 -98.3363 -98.3328
   -98.3077 -98.3000 -98.2980 -98.2794 -98.2763 -98.2714 -98.2467 -98.2395
   -98.2296 -98.2258 -98.2106 -98.1783 -98.1707 -98.1651 -98.1539 -98.1415
   -98.1370 -98.1318 -98.1190 -98.1178 -98.1119 -98.0966 -98.0940 -98.0578
   -98.0292 -56.0060 -55.9976 -55.9670 -55.9344 -55.9237 -55.9214 -55.8754
   -55.8724 -55.8722 -55.8595 -55.8514 -55.8514 -55.8397 -55.8318 -55.8173
   -55.8097 -55.8071 -55.8027 -55.8026 -55.8022 -55.7965 -55.7964 -55.7902
   -55.7893 -55.7844 -55.7801 -55.7741 -55.7691 -55.7683 -55.7669 -55.7604
   -55.7604 -55.7600 -55.7592 -55.7578 -55.7549 -55.7522 -55.7521 -55.7473
   -55.7473 -55.7469 -55.7459 -55.7343 -55.7290 -55.7286 -55.7228 -55.7140
   -55.7076 -55.7064 -55.7043 -55.7031 -55.7011 -55.6969 -55.6949 -55.6946
   -55.6944 -55.6906 -55.6888 -55.6845 -55.6814 -55.6793 -55.6769 -55.6747
   -55.6691 -55.6650 -55.6616 -55.6600 -55.6569 -55.6529 -55.6507 -55.6505
   -55.6491 -55.6485 -55.6475 -55.6454 -55.6377 -55.6361 -55.6334 -55.6332
   -55.6310 -55.6299 -55.6288 -55.6261 -55.6247 -55.6196 -55.6088 -55.6054
   -55.6033 -55.5982 -55.5968 -55.5887 -55.5835 -55.5747 -55.5720 -55.5661
   -55.5657 -55.5631 -55.5602 -55.5502 -55.5468 -55.5468 -55.5435 -55.5430
   -55.5377 -55.5357 -55.5339 -55.5337 -55.5311 -55.5246 -55.5185 -55.5158
   -55.5147 -55.5095 -55.5070 -55.5052 -55.5037 -55.5023 -55.4935 -55.4922
   -55.4879 -55.4867 -55.4831 -55.4703 -55.4687 -55.4664 -55.4633 -55.4631
   -55.4564 -55.4460 -55.4444 -55.4431 -55.4422 -55.4357 -55.4339 -55.4315
   -55.4202 -55.4185 -55.4149 -55.4123 -55.4113 -55.3955 -55.3892 -55.3858
   -55.3784 -55.3697 -55.3676 -55.3448 -34.3628 -34.2094 -34.1666 -34.1603
   -34.1463 -34.0869 -34.0752 -34.0696 -34.0684 -34.0672 -34.0601 -34.0544
   -34.0471 -34.0353 -34.0326 -34.0091 -33.9967 -33.9908 -33.9842 -33.9799
   -33.9738 -33.9677 -33.9522 -33.9519 -33.9492 -33.9395 -33.9346 -33.9263
   -33.9192 -33.9083 -33.9075 -33.9013 -33.8957 -33.8838 -33.8734 -33.8657
   -33.8400 -33.8356 -33.8311 -33.8132 -33.8068 -33.7875 -33.7706 -33.7413
   -33.7069 -33.6919 -33.6663 -33.5701 -33.4810 -12.4558 -12.4476 -12.4312
   -12.4298 -12.4180 -12.4100 -12.4043 -12.4018 -12.3966 -12.3844 -12.3755
   -12.3716 -12.3608 -12.3570 -12.3510 -12.3431 -12.3383 -12.3358 -12.3278
   -12.3226 -12.3151 -12.3131 -12.3068 -12.2957 -12.2937 -12.2868 -12.2835
   -12.2751 -12.2735 -12.2641 -12.2596 -12.2515 -12.2468 -12.2411 -12.2354
   -12.2327 -12.2309 -12.2250 -12.2188 -12.2155 -12.2065 -12.2002 -12.1974
   -12.1906 -12.1848 -12.1821 -12.1727 -12.1679 -12.1647 -12.1573 -12.1485
   -12.1455 -12.1409 -12.1390 -12.1342 -12.1249 -12.1175 -12.1142 -12.1072
   -12.0993 -12.0933 -12.0849 -12.0803 -12.0778 -12.0732 -12.0682 -12.0593
   -12.0584 -12.0523 -12.0455 -12.0416 -12.0364 -12.0287 -12.0238 -12.0197
   -12.0108 -12.0024 -12.0004 -11.9909 -11.9858 -11.9804 -11.9762 -11.9719
   -11.9640 -11.9584 -11.9548 -11.9498 -11.9442 -11.9385 -11.9337 -11.9267
   -11.9239 -11.9154 -11.9098 -11.9018 -11.8998 -11.8872 -11.8830 -11.8795
   -11.8745 -11.8722 -11.8658 -11.8598 -11.8553 -11.8526 -11.8475 -11.8424
   -11.8353 -11.8293 -11.8218 -11.8145 -11.8123 -11.8070 -11.8027 -11.7933
   -11.7874 -11.7807 -11.7736 -11.7635 -11.7584 -11.7554 -11.7478 -11.7422
   -11.7350 -11.7265 -11.7173 -11.7153 -11.7042 -11.6912 -11.6681 -11.6574
   -11.6524 -11.6421 -11.6334 -11.6288 -11.6198 -11.6091 -11.5679 -11.5276
   -11.5269 -11.5065 -11.4898 -11.4511 -11.4478 -11.4052 -11.3931 -11.3367
     7.3318   7.6967   7.8255   8.1336   8.3987   8.4880   8.6387   8.7720
     8.9670   9.0417   9.1599   9.2243   9.3302   9.4762   9.5103   9.6064
     9.6941   9.7112   9.8272   9.8913   9.9584   9.9867  10.0483  10.0905
    10.1186  10.1603  10.2043  10.2478  10.2934  10.3230  10.3427  10.3549
    10.3756  10.3852  10.4002  10.4106  10.4303  10.4377  10.4627  10.4825
    10.4883  10.5039  10.5142  10.5244  10.5439  10.5698  10.5742  10.5959
    10.5979  10.6126  10.6216  10.6346  10.6436  10.6521  10.6658  10.6768
    10.6838  10.7027  10.7089  10.7199  10.7236  10.7330  10.7408  10.7507
    10.7592  10.7677  10.7765  10.7911  10.7971  10.8027  10.8058  10.8154
    10.8253  10.8331  10.8419  10.8515  10.8596  10.8673  10.8737  10.8807
    10.8897  10.8917  10.8979  10.9122  10.9193  10.9242  10.9301  10.9384
    10.9454  10.9495  10.9587  10.9715  10.9746  10.9818  10.9929  10.9975
    11.0035  11.0087  11.0191  11.0252  11.0386  11.0395  11.0422  11.0520
    11.0600  11.0671  11.0734  11.0763  11.0855  11.0970  11.0998  11.1078
    11.1123  11.1177  11.1276  11.1309  11.1460  11.1494  11.1539  11.1626
    11.1731  11.1761  11.1837  11.1889  11.2018  11.2038  11.2104  11.2147
    11.2178  11.2254  11.2330  11.2410  11.2428  11.2532  11.2599  11.2653
    11.2710  11.2749  11.2811  11.2831  11.2914  11.3051  11.3077  11.3129
    11.3230  11.3257  11.3314  11.3414  11.3487  11.3531  11.3577  11.3635
    11.3706  11.3773  11.3857  11.3923  11.3939  11.4059  11.4096  11.4178
    11.4257  11.4291  11.4360  11.4376  11.4480  11.4540  11.4625  11.4714
    11.4788  11.4818  11.4899  11.4917  11.5016  11.5031  11.5114  11.5146
    11.5203  11.5272  11.5351  11.5443  11.5535  11.5594  11.5702  11.5788
    11.5862  11.5920  11.5991  11.6075  11.6169  11.6236  11.6324  11.6362
    11.6423  11.6477  11.6558  11.6614  11.6695  11.6781  11.6814  11.6927
    11.7021  11.7135  11.7231  11.7310  11.7316  11.7480  11.7518  11.7571
    11.7706  11.7764  11.7793  11.7889  11.8016  11.8084  11.8140  11.8232
    11.8309  11.8394  11.8450  11.8507  11.8584  11.8664  11.8784  11.8899
    11.8951  11.8993  11.9106  11.9187  11.9240  11.9387  11.9444  11.9539
    11.9643  11.9660  11.9772  11.9823  11.9899  11.9994  12.0080  12.0180
    12.0314  12.0355  12.0465  12.0535  12.0729  12.0820  12.0951  12.0990
    12.1089  12.1226  12.1266  12.1375  12.1425  12.1527  12.1624  12.1796
    12.1881  12.1949  12.2087  12.2267  12.2324  12.2447  12.2520  12.2588
    12.2735  12.2802  12.2933  12.3038  12.3219  12.3484  12.3559  12.3777
    12.3870  12.4022  12.4176  12.4292  12.4468  12.4881  12.4987  12.5200
    12.5391  12.5608  12.5789  12.6208  12.6494  12.6671  12.6938  12.7489
    12.7729  12.7957  12.8269  12.8494  12.8945  12.9368  12.9676  12.9985
    13.0321  13.0557  13.0692  13.1216  13.1440  13.1585  13.1909  13.2275
    13.2427  13.3130  13.3367  13.3801  13.4047  13.4542  13.4680  13.4757
    13.4964  13.5294  13.5591  13.5942  13.6264  13.6629  13.6735  13.7086
    13.7318  13.7499  13.7657  13.7959  13.8148  13.8491  13.8865  13.8949
    13.9288  13.9485  13.9739  13.9873  14.0113  14.0272  14.0436  14.0670
    14.0968  14.1296  14.1366  14.1632  14.1884  14.1969  14.2275  14.2428
    14.2837  14.2895  14.3068  14.3284  14.3481  14.3569  14.3637  14.3963
    14.4268  14.4481  14.4640  14.4808  14.5016  14.5226  14.5344  14.5588
    14.5668  14.5753  14.6048  14.6295  14.6634  14.6732  14.6906  14.7149
    14.7296  14.7421  14.7702  14.7942  14.8032  14.8084  14.8406  14.8506
    14.8716  14.8851  14.9043  14.9252  14.9464  14.9678  14.9992  15.0188
    15.0340  15.0483  15.0799  15.0941  15.1069  15.1270  15.1584  15.1776
    15.1873  15.2113  15.2445  15.2680  15.2789  15.2922  15.3168  15.3347
    15.3564  15.3750  15.4017  15.4214  15.4355  15.4596  15.4779  15.5168
    15.5370  15.5701  15.5890  15.6081  15.6554  15.6733  15.6899  15.7369
    15.7665  15.7701  15.8008  15.8164  15.8530  15.8872  15.9155  15.9327
    15.9689  15.9933  16.0148  16.0450  16.0954  16.1223  16.1345  16.1646
    16.1863  16.2369  16.2676  16.2739  16.3222  16.3502  16.3760  16.4399
    16.4798  16.5127  16.5430  16.5756  16.6031  16.6286  16.6634  16.6945
    16.7145  16.7551  16.7906  16.8110  16.8449  16.8786  16.9128  16.9375
    16.9553  16.9823  17.0040  17.0281  17.0983  17.1102  17.1405  17.1688
    17.1990  17.2440  17.2675  17.3052  17.3146  17.3730  17.3962  17.4186
    17.4367  17.4566  17.4950  17.5395  17.5640  17.5830  17.5949  17.6314
    17.6432  17.6631  17.7055  17.7549  17.7748  17.7914  17.8260  17.8566
    17.8744  17.8930  17.9319  17.9583  17.9760  18.0112  18.0300  18.0453
    18.0844  18.1160  18.1227  18.1427  18.1744  18.1945  18.2153  18.2510
    18.2777  18.2993  18.3133  18.3452  18.3624  18.4100  18.4210  18.4366
    18.4465  18.5009  18.5226  18.5568  18.5873  18.6213  18.6395  18.6686
    18.6935  18.7176  18.7391  18.7740  18.7966  18.8257  18.8465  18.8700
    18.8974  18.9237  18.9597  18.9858  19.0075  19.0367  19.0668  19.0941
    19.1265  19.1721  19.1926  19.2454  19.2957  19.3096  19.3328  19.3797
    19.4187  19.4595  19.5031  19.5456  19.5954  19.6246  19.6630  19.6944
    19.7412  19.7732  19.8250  19.8375  19.9145  19.9471  19.9739  20.0312
    20.0796  20.1023  20.2282  20.2938  20.3261  20.3607  20.3944  20.4531
    20.5256  20.5812  20.6166  20.7063  20.7906  20.8162  20.8732  20.9087
    20.9606  21.0153  21.0408  21.0847  21.1447  21.2173  21.2584  21.3409
    21.3629  21.3787  21.4064  21.4903  21.5487  21.5820  21.6363  21.6885
    21.7403  21.7629  21.8055  21.8252  21.8644  21.9086  21.9438  21.9837
    22.0399  22.0880  22.1046  22.1355  22.1684  22.2214  22.2353  22.2809
    22.3306  22.3704  22.4387  22.4763  22.5127  22.5693  22.5962  22.6404
    22.6825  22.7261  22.7641  22.7993  22.8459  22.8741  22.9338  22.9714
    23.0059  23.0565  23.0695  23.1282  23.1806  23.2282  23.2653  23.2836
    23.3236  23.3588  23.4025  23.4460  23.4838  23.5132  23.5711  23.5934
    23.6453  23.6928  23.7253  23.7491  23.7818  23.8235  23.8490  23.9105
    23.9575  24.0046  24.0213  24.0429  24.0907  24.1324  24.1609  24.1911
    24.2160  24.2360  24.3237  24.3413  24.4090  24.4528  24.4981  24.5146
    24.5630  24.5933  24.6073  24.6586  24.7107  24.7367  24.7503  24.8067
    24.8344  24.8777  24.9025  24.9513  24.9792  25.0097  25.0372  25.0613
    25.1099  25.1577  25.1936  25.2357  25.2668  25.3097  25.3174  25.3457
    25.3935  25.4407  25.4681  25.5029  25.5236  25.5735

     occupation numbers 
     1.0000   1.0000   1.0000   1.0000   1.0000   1.0000   1.0000   1.0000
     1.0000   1.0000   1.0000   1.0000   1.0000   1.0000   1.0000   1.0000
     1.0000   1.0000   1.0000   1.0000   1.0000   1.0000   1.0000   1.0000
     1.0000   1.0000   1.0000   1.0000   1.0000   1.0000   1.0000   1.0000
     1.0000   1.0000   1.0000   1.0000   1.0000   1.0000   1.0000   1.0000
     1.0000   1.0000   1.0000   1.0000   1.0000   1.0000   1.0000   1.0000
     1.0000   1.0000   1.0000   1.0000   1.0000   1.0000   1.0000   1.0000
     1.0000   1.0000   1.0000   1.0000   1.0000   1.0000   1.0000   1.0000
     1.0000   1.0000   1.0000   1.0000   1.0000   1.0000   1.0000   1.0000
     1.0000   1.0000   1.0000   1.0000   1.0000   1.0000   1.0000   1.0000
     1.0000   1.0000   1.0000   1.0000   1.0000   1.0000   1.0000   1.0000
     1.0000   1.0000   1.0000   1.0000   1.0000   1.0000   1.0000   1.0000
     1.0000   1.0000   1.0000   1.0000   1.0000   1.0000   1.0000   1.0000
     1.0000   1.0000   1.0000   1.0000   1.0000   1.0000   1.0000   1.0000
     1.0000   1.0000   1.0000   1.0000   1.0000   1.0000   1.0000   1.0000
     1.0000   1.0000   1.0000   1.0000   1.0000   1.0000   1.0000   1.0000
     1.0000   1.0000   1.0000   1.0000   1.0000   1.0000   1.0000   1.0000
     1.0000   1.0000   1.0000   1.0000   1.0000   1.0000   1.0000   1.0000
     1.0000   1.0000   1.0000   1.0000   1.0000   1.0000   1.0000   1.0000
     1.0000   1.0000   1.0000   1.0000   1.0000   1.0000   1.0000   1.0000
     1.0000   1.0000   1.0000   1.0000   1.0000   1.0000   1.0000   1.0000
     1.0000   1.0000   1.0000   1.0000   1.0000   1.0000   1.0000   1.0000
     1.0000   1.0000   1.0000   1.0000   1.0000   1.0000   1.0000   1.0000
     1.0000   1.0000   1.0000   1.0000   1.0000   1.0000   1.0000   1.0000
     1.0000   1.0000   1.0000   1.0000   1.0000   1.0000   1.0000   1.0000
     1.0000   1.0000   1.0000   1.0000   1.0000   1.0000   1.0000   1.0000
     1.0000   1.0000   1.0000   1.0000   1.0000   1.0000   1.0000   1.0000
     1.0000   1.0000   1.0000   1.0000   1.0000   1.0000   1.0000   1.0000
     1.0000   1.0000   1.0000   1.0000   1.0000   1.0000   1.0000   1.0000
     1.0000   1.0000   1.0000   1.0000   1.0000   1.0000   1.0000   1.0000
     1.0000   1.0000   1.0000   1.0000   1.0000   1.0000   1.0000   1.0000
     1.0000   1.0000   1.0000   1.0000   1.0000   1.0000   1.0000   1.0000
[...]
     atom   84 type  2   force =     0.00009134   -0.00001457    0.00012080
     atom   85 type  3   force =     0.00034543    0.00067218   -0.00036065
     atom   86 type  2   force =    -0.00026180    0.00018060    0.00003134
     atom   87 type  3   force =    -0.00230004   -0.00177980   -0.00414867
     atom   88 type  3   force =    -0.00340860    0.00144591   -0.00119697
     atom   89 type  1   force =     0.00045349    0.00026989   -0.00122613
     atom   90 type  3   force =    -0.00093782   -0.00131528    0.00375149
     atom   91 type  2   force =    -0.00003994    0.00021734    0.00014983
     atom   92 type  2   force =     0.00006091   -0.00021270   -0.00001343
     atom   93 type  2   force =    -0.00010019    0.00023773   -0.00013065
     atom   94 type  2   force =    -0.00005246    0.00048940   -0.00018516
     atom   95 type  2   force =    -0.00009613   -0.00016864    0.00015091
     atom   96 type  3   force =    -0.00007211    0.00110749   -0.00114775
     atom   97 type  3   force =    -0.00023684    0.00001310    0.00033430
     atom   98 type  2   force =     0.00003181   -0.00011568    0.00028342
     atom   99 type  2   force =    -0.00002739    0.00007415   -0.00034058
     atom  100 type  3   force =    -0.00136776   -0.00132094    0.00008103
     The Hubbard contrib.    to forces
     atom    1 type  2   force =     0.00000000    0.00000000    0.00000000
     atom    2 type  3   force =     0.00000000    0.00000000    0.00000000
     atom    3 type  2   force =     0.00000000    0.00000000    0.00000000
     atom    4 type  2   force =     0.00000000    0.00000000    0.00000000
     atom    5 type  3   force =     0.00000000    0.00000000    0.00000000
     atom    6 type  2   force =     0.00000000    0.00000000    0.00000000
     atom    7 type  2   force =     0.00000000    0.00000000    0.00000000
     atom    8 type  2   force =     0.00000000    0.00000000    0.00000000
     atom    9 type  3   force =     0.00000000    0.00000000    0.00000000
     atom   10 type  2   force =     0.00000000    0.00000000    0.00000000
     atom   11 type  3   force =     0.00000000    0.00000000    0.00000000
     atom   12 type  3   force =     0.00000000    0.00000000    0.00000000
     atom   13 type  3   force =     0.00000000    0.00000000    0.00000000
     atom   14 type  3   force =     0.00000000    0.00000000    0.00000000
     atom   15 type  2   force =     0.00000000    0.00000000    0.00000000
     atom   16 type  3   force =     0.00000000    0.00000000    0.00000000
     atom   17 type  2   force =     0.00000000    0.00000000    0.00000000
     atom   18 type  2   force =     0.00000000    0.00000000    0.00000000
     atom   19 type  3   force =     0.00000000    0.00000000    0.00000000
     atom   20 type  2   force =     0.00000000    0.00000000    0.00000000
     atom   21 type  2   force =     0.00000000    0.00000000    0.00000000
     atom   22 type  2   force =     0.00000000    0.00000000    0.00000000
     atom   23 type  3   force =     0.00000000    0.00000000    0.00000000
     atom   24 type  2   force =     0.00000000    0.00000000    0.00000000
     atom   25 type  2   force =     0.00000000    0.00000000    0.00000000
     atom   26 type  3   force =     0.00000000    0.00000000    0.00000000
     atom   27 type  2   force =     0.00000000    0.00000000    0.00000000
     atom   28 type  2   force =     0.00000000    0.00000000    0.00000000
     atom   29 type  3   force =     0.00000000    0.00000000    0.00000000
     atom   30 type  2   force =     0.00000000    0.00000000    0.00000000
     atom   31 type  3   force =     0.00000000    0.00000000    0.00000000
     atom   32 type  3   force =     0.00000000    0.00000000    0.00000000
     atom   33 type  3   force =     0.00000000    0.00000000    0.00000000
     atom   34 type  1   force =     0.00000000    0.00000000    0.00000000
     atom   35 type  2   force =     0.00000000    0.00000000    0.00000000
     atom   36 type  2   force =     0.00000000    0.00000000    0.00000000
     atom   37 type  3   force =     0.00000000    0.00000000    0.00000000
     atom   38 type  3   force =     0.00000000    0.00000000    0.00000000
     atom   39 type  2   force =     0.00000000    0.00000000    0.00000000
     atom   40 type  3   force =     0.00000000    0.00000000    0.00000000
     atom   41 type  3   force =     0.00000000    0.00000000    0.00000000
     atom   42 type  3   force =     0.00000000    0.00000000    0.00000000
     atom   43 type  2   force =     0.00000000    0.00000000    0.00000000
     atom   44 type  3   force =     0.00000000    0.00000000    0.00000000
     atom   45 type  2   force =     0.00000000    0.00000000    0.00000000
     atom   46 type  3   force =     0.00000000    0.00000000    0.00000000
     atom   47 type  3   force =     0.00000000    0.00000000    0.00000000
     atom   48 type  3   force =     0.00000000    0.00000000    0.00000000
     atom   49 type  2   force =     0.00000000    0.00000000    0.00000000
     atom   50 type  3   force =     0.00000000    0.00000000    0.00000000
     atom   51 type  3   force =     0.00000000    0.00000000    0.00000000
     atom   52 type  3   force =     0.00000000    0.00000000    0.00000000
     atom   53 type  2   force =     0.00000000    0.00000000    0.00000000
     atom   54 type  3   force =     0.00000000    0.00000000    0.00000000
     atom   55 type  3   force =     0.00000000    0.00000000    0.00000000
     atom   56 type  2   force =     0.00000000    0.00000000    0.00000000
     atom   57 type  3   force =     0.00000000    0.00000000    0.00000000
     atom   58 type  2   force =     0.00000000    0.00000000    0.00000000
     atom   59 type  3   force =     0.00000000    0.00000000    0.00000000
     atom   60 type  3   force =     0.00000000    0.00000000    0.00000000
     atom   61 type  2   force =     0.00000000    0.00000000    0.00000000
     atom   62 type  3   force =     0.00000000    0.00000000    0.00000000
     atom   63 type  2   force =     0.00000000    0.00000000    0.00000000
     atom   64 type  2   force =     0.00000000    0.00000000    0.00000000
     atom   65 type  3   force =     0.00000000    0.00000000    0.00000000
     atom   66 type  2   force =     0.00000000    0.00000000    0.00000000
     atom   67 type  2   force =     0.00000000    0.00000000    0.00000000
     atom   68 type  2   force =     0.00000000    0.00000000    0.00000000
     atom   69 type  2   force =     0.00000000    0.00000000    0.00000000
     atom   70 type  3   force =     0.00000000    0.00000000    0.00000000
     atom   71 type  2   force =     0.00000000    0.00000000    0.00000000
     atom   72 type  2   force =     0.00000000    0.00000000    0.00000000
     atom   73 type  3   force =     0.00000000    0.00000000    0.00000000
     atom   74 type  2   force =     0.00000000    0.00000000    0.00000000
     atom   75 type  2   force =     0.00000000    0.00000000    0.00000000
     atom   76 type  3   force =     0.00000000    0.00000000    0.00000000
     atom   77 type  3   force =     0.00000000    0.00000000    0.00000000
     atom   78 type  2   force =     0.00000000    0.00000000    0.00000000
     atom   79 type  3   force =     0.00000000    0.00000000    0.00000000
     atom   80 type  2   force =     0.00000000    0.00000000    0.00000000
     atom   81 type  3   force =     0.00000000    0.00000000    0.00000000
     atom   82 type  3   force =     0.00000000    0.00000000    0.00000000
     atom   83 type  3   force =     0.00000000    0.00000000    0.00000000
     atom   84 type  2   force =     0.00000000    0.00000000    0.00000000
     atom   85 type  3   force =     0.00000000    0.00000000    0.00000000
     atom   86 type  2   force =     0.00000000    0.00000000    0.00000000
     atom   87 type  3   force =     0.00000000    0.00000000    0.00000000
     atom   88 type  3   force =     0.00000000    0.00000000    0.00000000
     atom   89 type  1   force =     0.00000000    0.00000000    0.00000000
     atom   90 type  3   force =     0.00000000    0.00000000    0.00000000
     atom   91 type  2   force =     0.00000000    0.00000000    0.00000000
     atom   92 type  2   force =     0.00000000    0.00000000    0.00000000
     atom   93 type  2   force =     0.00000000    0.00000000    0.00000000
     atom   94 type  2   force =     0.00000000    0.00000000    0.00000000
     atom   95 type  2   force =     0.00000000    0.00000000    0.00000000
     atom   96 type  3   force =     0.00000000    0.00000000    0.00000000
     atom   97 type  3   force =     0.00000000    0.00000000    0.00000000
     atom   98 type  2   force =     0.00000000    0.00000000    0.00000000
     atom   99 type  2   force =     0.00000000    0.00000000    0.00000000
     atom  100 type  3   force =     0.00000000    0.00000000    0.00000000
     The SCF correction term to forces
     atom    1 type  2   force =    -0.00013724   -0.00033272   -0.00039790
     atom    2 type  3   force =    -0.00011501    0.00020804   -0.00023905
     atom    3 type  2   force =     0.00002621   -0.00002324   -0.00009577
     atom    4 type  2   force =     0.00011600   -0.00002135    0.00043727
     atom    5 type  3   force =     0.00027784   -0.00003149    0.00002637
     atom    6 type  2   force =    -0.00037545    0.00023571    0.00030229
     atom    7 type  2   force =     0.00029203    0.00004762   -0.00027907
     atom    8 type  2   force =    -0.00056578   -0.00057433   -0.00060554
     atom    9 type  3   force =     0.00054440   -0.00014226   -0.00014897
     atom   10 type  2   force =    -0.00038125   -0.00058322    0.00012948
     atom   11 type  3   force =    -0.00000369   -0.00036443   -0.00028485
     atom   12 type  3   force =     0.00026479   -0.00021686    0.00027161
     atom   13 type  3   force =     0.00016806   -0.00009688    0.00007679
     atom   14 type  3   force =     0.00013154   -0.00013868    0.00029306
     atom   15 type  2   force =     0.00019947   -0.00029610   -0.00042497
     atom   16 type  3   force =     0.00015913    0.00013943   -0.00043266
     atom   17 type  2   force =     0.00030831    0.00025386    0.00062871
     atom   18 type  2   force =     0.00035193    0.00015428    0.00063272
     atom   19 type  3   force =    -0.00028597   -0.00005127    0.00001591
     atom   20 type  2   force =     0.00071448    0.00012122   -0.00009069
     atom   21 type  2   force =     0.00072120    0.00048447   -0.00068806
     atom   22 type  2   force =     0.00059004    0.00061244   -0.00035084
     atom   23 type  3   force =     0.00003751    0.00028737    0.00015024
     atom   24 type  2   force =     0.00038692    0.00035527   -0.00010994
     atom   25 type  2   force =    -0.00046448    0.00024094    0.00043653
     atom   26 type  3   force =    -0.00061508   -0.00035775   -0.00018931
     atom   27 type  2   force =    -0.00101455   -0.00021562   -0.00017356
     atom   28 type  2   force =    -0.00068584   -0.00001690    0.00007113
     atom   29 type  3   force =    -0.00013446   -0.00004006    0.00028403
     atom   30 type  2   force =    -0.00050520    0.00003348    0.00002498
     atom   31 type  3   force =    -0.00034715    0.00023964    0.00000111
     atom   32 type  3   force =    -0.00042271   -0.00014947   -0.00019310
     atom   33 type  3   force =    -0.00038228   -0.00021192   -0.00045636
     atom   34 type  1   force =    -0.00011603   -0.00004480   -0.00001305
     atom   35 type  2   force =    -0.00092208   -0.00045458    0.00075395
     atom   36 type  2   force =    -0.00048287   -0.00047265    0.00074915
     atom   37 type  3   force =    -0.00054764   -0.00031237    0.00037169
     atom   38 type  3   force =    -0.00041726   -0.00024085   -0.00031309
     atom   39 type  2   force =    -0.00065171   -0.00015729   -0.00059868
     atom   40 type  3   force =    -0.00013866    0.00011850    0.00000235
     atom   41 type  3   force =    -0.00037660    0.00000933    0.00028488
     atom   42 type  3   force =    -0.00030685    0.00001995    0.00036176
     atom   43 type  2   force =    -0.00085678   -0.00035836    0.00018739
     atom   44 type  3   force =    -0.00051672    0.00010247   -0.00016770
     atom   45 type  2   force =    -0.00050542    0.00076881   -0.00033630
     atom   46 type  3   force =    -0.00056968    0.00025120   -0.00014642
     atom   47 type  3   force =    -0.00033975    0.00035529   -0.00003329
     atom   48 type  3   force =    -0.00029782    0.00027127    0.00014234
     atom   49 type  2   force =    -0.00082081    0.00037689    0.00015805
     atom   50 type  3   force =    -0.00026626    0.00026206   -0.00001775
     atom   51 type  3   force =    -0.00028147   -0.00014432   -0.00043501
     atom   52 type  3   force =     0.00020071    0.00003984   -0.00017121
     atom   53 type  2   force =    -0.00085483   -0.00050330    0.00046617
     atom   54 type  3   force =    -0.00041317   -0.00006664    0.00035524
     atom   55 type  3   force =    -0.00000330   -0.00009773   -0.00005837
     atom   56 type  2   force =     0.00035261   -0.00018123   -0.00065248
     atom   57 type  3   force =    -0.00013589   -0.00013360   -0.00010113
     atom   58 type  2   force =    -0.00055096   -0.00030072    0.00078415
     atom   59 type  3   force =     0.00004345   -0.00022696    0.00029188
     atom   60 type  3   force =     0.00025488   -0.00018576   -0.00018444
     atom   61 type  2   force =    -0.00067277   -0.00031160   -0.00032503
     atom   62 type  3   force =    -0.00036327    0.00022007   -0.00010986
     atom   63 type  2   force =     0.00008469    0.00012010    0.00026025
     atom   64 type  2   force =    -0.00031093    0.00039445    0.00038930
     atom   65 type  3   force =     0.00000743   -0.00000204    0.00023214
     atom   66 type  2   force =    -0.00050566   -0.00047325   -0.00013836
     atom   67 type  2   force =     0.00013476   -0.00017190   -0.00042250
     atom   68 type  2   force =    -0.00027303    0.00041727   -0.00041112
     atom   69 type  2   force =    -0.00070644    0.00023222   -0.00003055
     atom   70 type  3   force =    -0.00023098    0.00003716    0.00034690
     atom   71 type  2   force =    -0.00034653    0.00041611    0.00014609
     atom   72 type  2   force =     0.00002587    0.00042568    0.00023722
     atom   73 type  3   force =     0.00005077    0.00024545   -0.00005462
     atom   74 type  2   force =     0.00003365    0.00040135   -0.00047754
     atom   75 type  2   force =     0.00098536   -0.00003356   -0.00073129
     atom   76 type  3   force =     0.00062743    0.00031983   -0.00027973
     atom   77 type  3   force =     0.00030610   -0.00017719    0.00032915
     atom   78 type  2   force =     0.00084178    0.00005998    0.00045228
     atom   79 type  3   force =     0.00033845   -0.00020729    0.00038304
     atom   80 type  2   force =     0.00067066   -0.00041708    0.00023612
     atom   81 type  3   force =     0.00052636    0.00010910   -0.00035457
     atom   82 type  3   force =     0.00039156   -0.00019519   -0.00018352
     atom   83 type  3   force =     0.00054404   -0.00026541   -0.00016764
     atom   84 type  2   force =     0.00066028   -0.00006683    0.00036729
     atom   85 type  3   force =     0.00049464   -0.00017286    0.00021992
     atom   86 type  2   force =     0.00078847   -0.00019178    0.00018161
     atom   87 type  3   force =     0.00045415   -0.00023225   -0.00035039
     atom   88 type  3   force =     0.00014454   -0.00000448   -0.00018952
     atom   89 type  1   force =     0.00009053   -0.00002003   -0.00002561
     atom   90 type  3   force =     0.00037611    0.00008722    0.00041080
     atom   91 type  2   force =     0.00086286    0.00004755    0.00042121
     atom   92 type  2   force =     0.00083172    0.00045086    0.00016276
     atom   93 type  2   force =     0.00057833   -0.00010125    0.00002270
     atom   94 type  2   force =     0.00092297    0.00029148   -0.00074151
     atom   95 type  2   force =     0.00037367    0.00037068   -0.00074206
     atom   96 type  3   force =     0.00039345    0.00021452    0.00033715
     atom   97 type  3   force =     0.00027943    0.00020929    0.00045269
     atom   98 type  2   force =     0.00046286    0.00047494    0.00052107
     atom   99 type  2   force =     0.00071891    0.00037188   -0.00019074
     atom  100 type  3   force =     0.00048538    0.00017653   -0.00037220

     Total force =     0.297787     Total SCF correction =     0.006594

     Writing output data file Zr49Cu49Al2.save
 
     init_run     :     36.43s CPU     37.30s WALL (       1 calls)
     electrons    :   6634.34s CPU   6755.87s WALL (       1 calls)
     forces       :     22.88s CPU     23.56s WALL (       1 calls)

     Called by init_run:
     wfcinit      :     31.03s CPU     31.38s WALL (       1 calls)
     wfcinit:atom :      0.06s CPU      0.10s WALL (       1 calls)
     wfcinit:wfcr :     30.71s CPU     30.96s WALL (       1 calls)
     potinit      :      0.92s CPU      0.99s WALL (       1 calls)

     Called by electrons:
     c_bands      :   5666.13s CPU   5740.73s WALL (      61 calls)
     sum_band     :    815.93s CPU    839.28s WALL (      61 calls)
     v_of_rho     :     24.15s CPU     25.03s WALL (      62 calls)
     v_h          :      2.28s CPU      2.37s WALL (      62 calls)
     v_xc         :     22.22s CPU     23.00s WALL (      63 calls)
     newd         :    108.54s CPU    129.67s WALL (      62 calls)
     PAW_pot      :     10.75s CPU     11.38s WALL (      62 calls)
     mix_rho      :      6.11s CPU      6.63s WALL (      61 calls)

     Called by c_bands:
     init_us_2    :      9.22s CPU      9.34s WALL (     123 calls)
     cegterg      :   5419.42s CPU   5487.80s WALL (      61 calls)

     Called by sum_band:
     sum_band:bec :      1.71s CPU      1.76s WALL (      61 calls)
     addusdens    :    142.84s CPU    162.53s WALL (      61 calls)

     Called by *egterg:
     h_psi        :   2279.17s CPU   2292.71s WALL (     162 calls)
     s_psi        :    499.31s CPU    501.40s WALL (     162 calls)
     g_psi        :      3.09s CPU      3.10s WALL (     100 calls)
     cdiaghg      :   1196.98s CPU   1215.82s WALL (     161 calls)
     cegterg:over :    587.63s CPU    591.57s WALL (     100 calls)
     cegterg:upda :    339.98s CPU    342.91s WALL (     100 calls)
     cegterg:last :    308.92s CPU    309.10s WALL (      61 calls)
     cdiaghg:chol :     58.85s CPU     59.38s WALL (     161 calls)
     cdiaghg:inve :     70.44s CPU     70.92s WALL (     161 calls)
     cdiaghg:para :    180.41s CPU    187.79s WALL (     322 calls)

     Called by h_psi:
     h_psi:pot    :   2269.80s CPU   2283.23s WALL (     162 calls)
     h_psi:calbec :    488.60s CPU    489.61s WALL (     162 calls)
     vloc_psi     :   1292.61s CPU   1302.69s WALL (     162 calls)
     add_vuspsi   :    488.58s CPU    490.92s WALL (     162 calls)

     General routines
     calbec       :    739.50s CPU    740.91s WALL (     227 calls)
     fft          :     29.07s CPU     30.47s WALL (     999 calls)
     ffts         :      0.78s CPU      0.82s WALL (     123 calls)
     fftw         :   1141.94s CPU   1151.31s WALL (  340462 calls)
     interpolate  :      4.90s CPU      5.22s WALL (     123 calls)
 
     Parallel routines
     fft_scatt_xy :     93.96s CPU     94.57s WALL (  341584 calls)
     fft_scatt_yz :    201.42s CPU    204.17s WALL (  341584 calls)

     PAW routines
     PAW_pot      :     10.75s CPU     11.38s WALL (      62 calls)
 
     PWSCF        :     1h55m CPU        2h 1m WALL

 
   This run was terminated on:  18:56:27  19Apr2019            

=------------------------------------------------------------------------------=
   JOB DONE.
=------------------------------------------------------------------------------=
