LAMMPS (16 Feb 2016)
Created orthogonal box = (-6.98 -6.98 -6.98) to (6.98 6.98 6.98)
  4 by 4 by 6 MPI processor grid
Created 45 atoms
Created 45 atoms
Created 10 atoms
WARNING: Resetting reneighboring criteria during minimization (../min.cpp:168)
Neighbor list info ...
  1 neighbor list requests
  update every 1 steps, delay 0 steps, check yes
  max neighbors/atom: 2000, page size: 100000
  master list distance cutoff = 8.5
  ghost atom cutoff = 8.5
  binsize = 4.25, bins = 4 4 4
Setting up cg style minimization ...
  Unit style: metal
Memory usage per processor = 3.28839 Mbytes
Step TotEng Temp Press PotEng Volume Density Lx Ly Lz Enthalpy 
       0    103973.61            0     49099439    103973.61    2720.5471    4.4156874        13.96        13.96        13.96    187346.03 
      50   -337.17765            0    34487.298   -337.17765    2720.5471    4.4156874        13.96        13.96        13.96   -278.61711 
     100   -380.06001            0   -49865.232   -380.06001    2720.5471    4.4156874        13.96        13.96        13.96   -464.73277 
     150   -388.32981            0    -58424.16   -388.32981    2720.5471    4.4156874        13.96        13.96        13.96   -487.53591 
     200   -392.10938            0   -71005.536   -392.10938    2720.5471    4.4156874        13.96        13.96        13.96   -512.67906 
     250   -404.32539            0   -49183.612   -404.32539    2720.5471    4.4156874        13.96        13.96        13.96   -487.84074 
     300   -416.03787            0   -57217.463   -416.03787    2720.5471    4.4156874        13.96        13.96        13.96   -513.19496 
     350    -418.8075            0   -55275.978    -418.8075    2720.5471    4.4156874        13.96        13.96        13.96   -512.66788 
     400   -421.17338            0   -50374.577   -421.17338    2720.5471    4.4156874        13.96        13.96        13.96   -506.71103 
     450   -422.80006            0   -47779.014   -422.80006    2720.5471    4.4156874        13.96        13.96        13.96   -503.93036 
     500    -423.7034            0   -45461.708    -423.7034    2720.5471    4.4156874        13.96        13.96        13.96   -500.89884 
     550   -424.36276            0   -44503.438   -424.36276    2720.5471    4.4156874        13.96        13.96        13.96   -499.93103 
     600   -426.16936            0    -44930.99   -426.16936    2720.5471    4.4156874        13.96        13.96        13.96   -502.46362 
     650   -426.97334            0   -45401.368   -426.97334    2720.5471    4.4156874        13.96        13.96        13.96   -504.06632 
     700   -427.78263            0   -49078.515   -427.78263    2720.5471    4.4156874        13.96        13.96        13.96   -511.11952 
     750   -430.98519            0   -46909.194   -430.98519    2720.5471    4.4156874        13.96        13.96        13.96   -510.63851 
     800   -431.70002            0   -46130.003   -431.70002    2720.5471    4.4156874        13.96        13.96        13.96   -510.03024 
     850   -432.33928            0   -44638.411   -432.33928    2720.5471    4.4156874        13.96        13.96        13.96   -508.13673 
     900   -433.19538            0   -42499.279   -433.19538    2720.5471    4.4156874        13.96        13.96        13.96   -505.36052 
     950   -433.68525            0   -41706.553   -433.68525    2720.5471    4.4156874        13.96        13.96        13.96   -504.50432 
    1000   -433.83434            0    -42103.02   -433.83434    2720.5471    4.4156874        13.96        13.96        13.96   -505.32662 
    1050   -433.94773            0   -41853.059   -433.94773    2720.5471    4.4156874        13.96        13.96        13.96   -505.01557 
    1100   -434.49597            0   -40307.457   -434.49597    2720.5471    4.4156874        13.96        13.96        13.96   -502.93932 
    1150   -435.01081            0   -39891.016   -435.01081    2720.5471    4.4156874        13.96        13.96        13.96   -502.74704 
    1200   -435.24882            0   -39416.349   -435.24882    2720.5471    4.4156874        13.96        13.96        13.96   -502.17905 
    1250   -435.69233            0   -38923.836   -435.69233    2720.5471    4.4156874        13.96        13.96        13.96   -501.78625 
    1300   -435.98199            0   -38649.434   -435.98199    2720.5471    4.4156874        13.96        13.96        13.96   -501.60997 
    1350   -436.19994            0   -38680.603   -436.19994    2720.5471    4.4156874        13.96        13.96        13.96   -501.88085 
    1400    -436.4473            0   -38139.802    -436.4473    2720.5471    4.4156874        13.96        13.96        13.96    -501.2099 
    1450   -436.75001            0   -38038.061   -436.75001    2720.5471    4.4156874        13.96        13.96        13.96   -501.33986 
    1500    -445.2612            0   -40415.108    -445.2612    2720.5471    4.4156874        13.96        13.96        13.96   -513.88735 
    1550   -445.55268            0   -40887.302   -445.55268    2720.5471    4.4156874        13.96        13.96        13.96   -514.98064 
    1600   -446.01481            0   -42120.645   -446.01481    2720.5471    4.4156874        13.96        13.96        13.96   -517.53702 
    1650   -446.19122            0   -42270.059   -446.19122    2720.5471    4.4156874        13.96        13.96        13.96   -517.96714 
    1700   -446.35278            0   -43221.425   -446.35278    2720.5471    4.4156874        13.96        13.96        13.96   -519.74415 
    1750   -446.84886            0   -41166.077   -446.84886    2720.5471    4.4156874        13.96        13.96        13.96   -516.75018 
    1800   -449.26744            0   -42425.175   -449.26744    2720.5471    4.4156874        13.96        13.96        13.96   -521.30675 
    1850   -449.49527            0   -42150.316   -449.49527    2720.5471    4.4156874        13.96        13.96        13.96   -521.06786 
    1900    -449.7794            0   -41338.924    -449.7794    2720.5471    4.4156874        13.96        13.96        13.96   -519.97422 
    1950   -449.93843            0   -42223.012   -449.93843    2720.5471    4.4156874        13.96        13.96        13.96   -521.63446 
    2000   -450.24243            0    -40874.05   -450.24243    2720.5471    4.4156874        13.96        13.96        13.96   -519.64788 
    2050   -450.30517            0   -40308.389   -450.30517    2720.5471    4.4156874        13.96        13.96        13.96   -518.75011 
    2100   -450.39246            0   -40402.526   -450.39246    2720.5471    4.4156874        13.96        13.96        13.96   -518.99725 
    2150    -450.5048            0   -39660.712    -450.5048    2720.5471    4.4156874        13.96        13.96        13.96   -517.84996 
    2200   -450.59466            0   -39218.179   -450.59466    2720.5471    4.4156874        13.96        13.96        13.96   -517.18839 
    2250   -450.73866            0   -38342.413   -450.73866    2720.5471    4.4156874        13.96        13.96        13.96   -515.84531 
    2300    -450.7941            0    -37263.17    -450.7941    2720.5471    4.4156874        13.96        13.96        13.96   -514.06816 
    2350   -450.81862            0   -37394.178   -450.81862    2720.5471    4.4156874        13.96        13.96        13.96   -514.31514 
    2400   -450.90424            0   -36956.968   -450.90424    2720.5471    4.4156874        13.96        13.96        13.96   -513.65836 
    2450   -450.94087            0   -36929.475   -450.94087    2720.5471    4.4156874        13.96        13.96        13.96   -513.64831 
    2500   -450.96317            0   -37285.765   -450.96317    2720.5471    4.4156874        13.96        13.96        13.96    -514.2756 
    2550   -451.09331            0   -36431.486   -451.09331    2720.5471    4.4156874        13.96        13.96        13.96   -512.95514 
    2600   -451.15082            0   -35781.787   -451.15082    2720.5471    4.4156874        13.96        13.96        13.96   -511.90945 
    2650   -451.26165            0   -35573.443   -451.26165    2720.5471    4.4156874        13.96        13.96        13.96    -511.6665 
    2700   -451.29828            0   -35318.573   -451.29828    2720.5471    4.4156874        13.96        13.96        13.96   -511.27035 
    2750   -451.31111            0   -35036.128   -451.31111    2720.5471    4.4156874        13.96        13.96        13.96   -510.80358 
    2800   -451.36111            0   -34657.554   -451.36111    2720.5471    4.4156874        13.96        13.96        13.96   -510.21075 
    2850   -451.38382            0   -34368.847   -451.38382    2720.5471    4.4156874        13.96        13.96        13.96   -509.74322 
    2900   -451.53662            0    -35214.88   -451.53662    2720.5471    4.4156874        13.96        13.96        13.96   -511.33262 
    2950   -451.59648            0    -33468.05   -451.59648    2720.5471    4.4156874        13.96        13.96        13.96   -508.42631 
    3000    -451.6457            0   -33736.652    -451.6457    2720.5471    4.4156874        13.96        13.96        13.96   -508.93162 
    3050   -451.66978            0   -33448.251   -451.66978    2720.5471    4.4156874        13.96        13.96        13.96   -508.46599 
    3100   -451.67169            0   -33414.813   -451.67169    2720.5471    4.4156874        13.96        13.96        13.96   -508.41112 
    3150   -451.67321            0   -33371.337   -451.67321    2720.5471    4.4156874        13.96        13.96        13.96   -508.33881 
    3200   -451.67535            0   -33409.157   -451.67535    2720.5471    4.4156874        13.96        13.96        13.96   -508.40517 
    3250   -451.67892            0   -33429.132   -451.67892    2720.5471    4.4156874        13.96        13.96        13.96   -508.44266 
    3300   -451.68019            0   -33435.918   -451.68019    2720.5471    4.4156874        13.96        13.96        13.96   -508.45545 
    3350   -451.68131            0   -33441.937   -451.68131    2720.5471    4.4156874        13.96        13.96        13.96   -508.46679 
    3400   -451.69433            0   -33481.301   -451.69433    2720.5471    4.4156874        13.96        13.96        13.96   -508.54665 
    3450   -451.69842            0   -33500.938   -451.69842    2720.5471    4.4156874        13.96        13.96        13.96   -508.58409 
    3500    -451.7014            0   -33498.985    -451.7014    2720.5471    4.4156874        13.96        13.96        13.96   -508.58376 
    3550   -451.73409            0   -33497.507   -451.73409    2720.5471    4.4156874        13.96        13.96        13.96   -508.61393 
    3600   -454.10652            0   -33859.135   -454.10652    2720.5471    4.4156874        13.96        13.96        13.96   -511.60042 
    3650   -454.31169            0   -31300.947   -454.31169    2720.5471    4.4156874        13.96        13.96        13.96    -507.4617 
    3700   -455.61751            0   -28007.414   -455.61751    2720.5471    4.4156874        13.96        13.96        13.96   -503.17499 
    3750   -456.12896            0   -32514.309   -456.12896    2720.5471    4.4156874        13.96        13.96        13.96   -511.33931 
    3800   -456.25524            0   -32412.494   -456.25524    2720.5471    4.4156874        13.96        13.96        13.96   -511.29269 
    3850   -456.25544            0   -32515.057   -456.25544    2720.5471    4.4156874        13.96        13.96        13.96   -511.46705 
    3900   -456.25544            0   -32523.398   -456.25544    2720.5471    4.4156874        13.96        13.96        13.96   -511.48121 
    3950   -456.25544            0   -32524.126   -456.25544    2720.5471    4.4156874        13.96        13.96        13.96   -511.48245 
    3989   -456.25544            0   -32524.127   -456.25544    2720.5471    4.4156874        13.96        13.96        13.96   -511.48245 
Loop time of 2.81734 on 96 procs for 3989 steps with 100 atoms

99.9% CPU use with 96 MPI tasks x no OpenMP threads

Minimization stats:
  Stopping criterion = force tolerance
  Energy initial, next-to-last, final = 
         103973.605002     -456.255440266     -456.255440266
  Force two-norm initial, final = 114173 9.56891e-09
  Force max component initial, final = 40462 2.0703e-09
  Final line search alpha, max atom move = 1 2.0703e-09
  Iterations, force evaluations = 3989 9879

MPI task timing breakdown:
Section |  min time  |  avg time  |  max time  |%varavg| %total
---------------------------------------------------------------
Pair    | 1.0514     | 1.0926     | 1.1474     |   2.0 | 38.78
Neigh   | 0.00013328 | 0.00019842 | 0.00030708 |   0.3 |  0.01
Comm    | 0.94968    | 1.0999     | 1.2395     |   6.1 | 39.04
Output  | 0.0051095  | 0.0051663  | 0.0075471  |   0.3 |  0.18
Modify  | 0          | 0          | 0          |   0.0 |  0.00
Other   |            | 0.6195     |            |       | 21.99

Nlocal:    1.04167 ave 3 max 0 min
Histogram: 30 0 0 36 0 0 26 0 0 4
Nghost:    295.771 ave 377 max 214 min
Histogram: 6 9 10 7 14 12 16 9 8 5
Neighs:    50.6562 ave 186 max 0 min
Histogram: 30 8 19 12 9 5 10 0 1 2

Total # of neighbors = 4863
Ave neighs/atom = 48.63
Neighbor list builds = 23
Dangerous builds = 0
Neighbor list info ...
  1 neighbor list requests
  update every 1 steps, delay 10 steps, check yes
  max neighbors/atom: 2000, page size: 100000
  master list distance cutoff = 8.5
  ghost atom cutoff = 8.5
  binsize = 4.25, bins = 4 4 4
Setting up Verlet run ...
  Unit style  : metal
  Current step: 3989
  Time step   : 0.002
Memory usage per processor = 2.66336 Mbytes
Step TotEng Temp Press PotEng Volume Density Lx Ly Lz Enthalpy 
    3989   -456.25544            0   -32524.127   -456.25544    2720.5471    4.4156874        13.96        13.96        13.96   -511.48245 
    5000   -426.15271    1831.1516   -21287.543   -449.58551    1985.4449    6.0505762    12.568572    12.568572    12.568572   -452.53261 
   10000   -423.22754    2290.2203   -3150.3225   -452.53492    1936.7102     6.202831    12.464883    12.464883    12.464883   -427.03565 
   15000   -429.32879    1882.4251    5105.5082   -453.41772    1909.6198    6.2908258    12.406491    12.406491    12.406491   -423.24358 
   20000   -427.30819    1921.0028   -2796.9971   -451.89079    1930.2153    6.2237025    12.450934    12.450934    12.450934   -430.67786 
   25000   -430.14714    1922.5986    10577.836   -454.75016     1856.241    6.4717275    12.289799    12.289799    12.289799   -417.89193 
   30000   -422.57155    2183.4927     1684.936   -450.51317    1935.0502    6.2081522    12.461321    12.461321    12.461321   -420.53655 
   35000   -428.38479    2157.5498    4465.3184   -455.99443    1893.3715    6.3448117    12.371203    12.371203    12.371203   -423.10791 
   40000   -427.49145    2062.1641   -2253.3553   -453.88046    1909.2069    6.2921865    12.405597    12.405597    12.405597   -430.17662 
   45000   -427.28409     1975.209   -13647.458   -452.56035    1933.6142    6.2127626    12.458238    12.458238    12.458238   -443.75476 
   50000   -428.22039    2002.3725   -5200.7519   -453.84426    1928.3719    6.2296519    12.446969    12.446969    12.446969   -434.47999 
   55000   -421.99902    2168.6892    6368.0943    -449.7512    1919.9603    6.2569448    12.428844    12.428844    12.428844   -414.36785 
   60000   -423.69473    2202.1341    3509.3534    -451.8749    1925.6436    6.2384782    12.441096    12.441096    12.441096   -419.47687 
   65000   -430.14741    1882.3665    2662.8964   -454.23559      1891.06    6.3525673    12.366167    12.366167    12.366167   -427.00438 
   70000   -426.05832    1893.9108   -19037.172   -450.29423    1959.9819    6.1291819    12.514611    12.514611    12.514611   -449.34696 
   75000   -425.16852    2005.9997    3479.7855   -450.83881    1907.6795    6.2972243    12.402288    12.402288    12.402288   -421.02521 
   80000   -423.07392    2221.0746     4979.378   -451.49647    1912.8166    6.2803123     12.41341     12.41341     12.41341   -417.12911 
   85000   -428.43232    1910.6321    6024.3329   -452.88221    1913.7385    6.2772871    12.415404    12.415404    12.415404   -421.23649 
   90000   -423.40989    1833.4403   -1267.3592   -446.87197    1961.1148    6.1256412    12.517022    12.517022    12.517022   -424.96118 
   95000   -427.95058    1962.1714   -9103.3245      -453.06    1942.1621    6.1854186    12.476569    12.476569    12.476569   -438.98565 
  100000   -425.90286    1989.8307    10875.633   -451.36624    1894.3375    6.3415763    12.373307    12.373307    12.373307   -413.04403 
  105000   -426.23371    1913.2278    2480.8797   -450.71681    1902.9629    6.3128324    12.392058    12.392058    12.392058   -423.28708 
  110000   -422.88478    2286.9703    8473.5132   -452.15057    1908.5368    6.2943958    12.404145    12.404145    12.404145     -412.791 
  115000    -425.1077    2259.3101   -8133.2667   -454.01954    1919.7487    6.2576344    12.428388    12.428388    12.428388   -434.85309 
  120000   -426.72082    1810.9868    3473.8765   -449.89557    1926.1815    6.2367362    12.442254    12.442254    12.442254   -422.54443 
  125000   -424.94854    2182.7767    5197.6254     -452.881    1903.2737    6.3118015    12.392733    12.392733    12.392733   -418.77412 
  130000   -423.55118    1895.1183   -21211.184   -447.80255    1974.2893    6.0847645    12.544988    12.544988    12.544988   -449.68876 
  135000   -427.20615    1968.2792   -4497.1717   -452.39373    1921.0765    6.2533096    12.431252    12.431252    12.431252   -432.59844 
  140000   -422.01075    2073.6352   -3077.0123   -448.54655     1939.999    6.1923154    12.471935    12.471935    12.471935   -425.73656 
  145000   -426.74435    2066.2891   -5339.7485   -453.18614    1932.4096    6.2166353     12.45565     12.45565     12.45565    -433.1847 
  150000   -430.13422    1709.8136    5995.7017   -452.01429    1917.9327    6.2635597    12.424468    12.424468    12.424468   -422.95689 
  155000   -424.76616    1955.7188   -7823.3753   -449.79302    1956.0813    6.1414041    12.506304    12.506304    12.506304   -434.31764 
  160000   -421.93984    2206.9537    16296.022   -450.18168    1902.2276    6.3152727    12.390462    12.390462    12.390462   -402.59194 
  165000    -423.2095    2150.0096   -38.818165   -450.72265    1924.4043    6.2424958    12.438426    12.438426    12.438426   -423.25613 
  170000   -428.14921    1972.7197     6293.552   -453.39362    1910.7299     6.287171    12.408895    12.408895    12.408895   -420.64362 
  175000   -432.11185    1899.7359    28719.022   -456.42231    1840.6996    6.5263695    12.255404    12.255404    12.255404    -399.1173 
  180000   -422.67154    2063.3347     5318.693   -449.07552    1922.5777    6.2484268     12.43449     12.43449     12.43449   -416.28922 
  185000   -419.38847    2328.8602    22299.444   -449.19032    1906.0292    6.3026766     12.39871     12.39871     12.39871   -392.85994 
  190000   -431.59614    1899.9565   -7899.3479   -455.90942    1924.2939    6.2428538    12.438189    12.438189    12.438189   -441.08365 
  195000   -426.07156    2011.1484   -10209.761   -451.80773     1940.317    6.1913007    12.472616    12.472616    12.472616    -438.4361 
  200000   -418.14955    2093.8923   -20593.665   -444.94458     2007.378    5.9844662    12.614684    12.614684    12.614684    -443.9515 
  205000   -427.62995    2004.1688    5949.5631   -453.27681    1901.7588    6.3168295    12.389444    12.389444    12.389444   -420.56791 
  210000   -426.25987     1890.375   -25215.001   -450.45054    1974.6474    6.0836613    12.545747    12.545747    12.545747   -457.33681 
  215000   -425.74825    2096.4277     10753.06   -452.57572    1891.2624    6.3518874    12.366608    12.366608    12.366608   -413.05498 
  220000    -430.8017    1887.5872    9696.2566   -454.95669    1896.0161     6.335962    12.376961    12.376961    12.376961   -419.32714 
  225000   -426.11298    1987.1844    882.68313   -451.54249    1933.5003    6.2131284    12.457993    12.457993    12.457993   -425.04777 
  230000   -424.52461    2143.0741   -1162.4646     -451.949    1919.6162    6.2580665    12.428102    12.428102    12.428102   -425.91739 
  235000   -421.79963    2253.4543   -1546.3068   -450.63653    1928.4439    6.2294192    12.447124    12.447124    12.447124   -423.66083 
  240000   -430.01031    1808.6902    3589.0983   -453.15567     1903.256    6.3118603    12.392694    12.392694    12.392694   -425.74675 
  245000   -429.24092    2190.4331    26306.922   -457.27135    1849.0599    6.4968613    12.273931    12.273931    12.273931    -398.8803 
  250000   -423.19867    2072.7037    15370.868   -449.72255     1901.255    6.3185033     12.38835     12.38835     12.38835   -404.95852 
  255000   -428.69556    1988.2701     -8164.53   -454.13897    1926.4759    6.2357831    12.442888    12.442888    12.442888   -438.51269 
  260000   -425.72137    2058.2318   -14600.457   -452.06006    1957.1017    6.1382021    12.508478    12.508478    12.508478   -443.55622 
  265000   -429.52544    1821.8378    180.82688   -452.83905    1930.4109    6.2230717    12.451354    12.451354    12.451354   -429.30756 
  270000   -430.09808    2139.2649   -7081.5605   -457.47372    1895.5805    6.3374181    12.376013    12.376013    12.376013   -438.47647 
  275000   -418.41923    2224.6912    804.20717   -446.88806    1955.4238     6.143469    12.504902    12.504902    12.504902   -417.43771 
  280000   -430.26387    1887.5031    12457.944   -454.41778    1880.5117    6.3882006    12.343131    12.343131    12.343131   -415.64169 
  285000   -427.81095    1895.2927   -4807.6813   -452.06455    1915.2662    6.2722801    12.418707    12.418707    12.418707   -433.55813 
  290000   -427.36115    1679.8148   -23595.299   -448.85732    1977.2305    6.0757135    12.551215    12.551215    12.551215   -456.47988 
  295000    -421.0057    1958.9514     32894.61   -446.07392    1893.7516    6.3435384    12.372031    12.372031    12.372031    -382.1247 
  300000   -422.36417    2119.1221   -6480.8921   -449.48205    1970.7755    6.0956136    12.537541    12.537541    12.537541   -430.33606 
  305000   -426.80352    1949.7066    16748.374   -451.75344    1873.8551    6.4108937     12.32855     12.32855     12.32855   -407.21515 
  310000   -425.22948     2069.472   -2587.6588     -451.712    1927.9479     6.231022    12.446056    12.446056    12.446056   -428.34329 
  315000   -424.09497    1901.7246   -8615.0993   -448.43087    1968.3708    6.1030603     12.53244     12.53244     12.53244   -434.67914 
  320000   -424.71265    2119.2278    6901.6487   -451.83189    1893.5192    6.3443168    12.371525    12.371525    12.371525   -416.55599 
  325000   -422.14083    2235.4712   -1994.8252    -450.7476    1939.5736    6.1936736    12.471023    12.471023    12.471023   -424.55573 
  330000   -432.04336     1914.477      13412.7   -456.54245    1864.6606    6.4425054    12.308353    12.308353    12.308353   -416.43326 
  335000   -429.78061    1865.7916    2937.2129   -453.65668    1893.9901    6.3427396     12.37255     12.37255     12.37255   -426.30842 
  340000   -421.84232    2322.1012    11206.455   -451.55768    1906.1857    6.3021593     12.39905     12.39905     12.39905   -408.50947 
  345000   -428.49388    1826.7651   -7592.8483   -451.87054    1944.6597    6.1774745    12.481915    12.481915    12.481915   -437.70978 
  350000   -428.73237    2030.7194   -9204.2025   -454.71899    1926.5118    6.2356669    12.442965    12.442965    12.442965   -439.79982 
  355000   -424.89904    1890.1017   -2952.6772   -449.08621    1938.0346    6.1985921    12.467724    12.467724    12.467724   -428.47068 
  360000   -429.07724     1713.087    15847.959    -450.9992    1895.4786    6.3377587    12.375791    12.375791    12.375791   -410.32808 
  365000   -428.55857    1935.3831   -3472.9615   -453.32519    1924.6074    6.2418369    12.438864    12.438864    12.438864   -432.73045 
  370000   -423.42719    2145.1052    7002.0484   -450.87758    1913.9544    6.2765789    12.415871    12.415871    12.415871   -415.06257 
  375000   -424.72659     2023.377   -2279.5905   -450.61925     1949.733    6.1614003     12.49276     12.49276     12.49276   -427.50069 
  380000   -422.62643    2092.1141    8712.1342    -449.3987    1919.9533    6.2569678    12.428829    12.428829    12.428829   -412.18632 
  385000   -430.42999    1825.0352   -8203.3345   -453.78452    1924.7427    6.2413982    12.439155    12.439155    12.439155    -440.2849 
  390000   -427.02834    2067.4896    7460.8781   -453.48549    1887.6929    6.3638985    12.358823    12.358823    12.358823   -418.23789 
  395000   -418.29814    2200.3476    26895.325   -446.45545    1876.9834    6.4002089    12.335407    12.335407    12.335407   -386.78971 
  400000   -426.42937    1998.4215   -3926.7741   -452.00267    1922.5718    6.2484459    12.434477    12.434477    12.434477    -431.1414 
  405000   -429.93868    1756.2486    7926.9588   -452.41296    1900.4869     6.321057    12.386681    12.386681    12.386681   -420.53579 
  410000   -425.36121    2200.6289    -5810.989   -453.52211     1921.835    6.2508412    12.432888    12.432888    12.432888   -432.33158 
  415000   -429.45065    1875.1617    8619.3415   -453.44664      1895.42    6.3379546    12.375663    12.375663    12.375663   -419.25373 
  420000   -425.92271    2047.6734    16989.294   -452.12628     1904.501    6.3077341    12.395396    12.395396    12.395396    -405.7276 
  425000   -421.03062    2142.2461   -10787.189   -448.44442    1956.2938     6.140737    12.506756    12.506756    12.506756   -434.20202 
  430000   -429.24956    2176.2205    10147.892   -457.09812    1884.4382    6.3748899    12.351716    12.351716    12.351716   -417.31388 
  435000   -427.24654    2074.1969    18748.928   -453.78952    1880.5371    6.3881141    12.343187    12.343187    12.343187   -405.24019 
  440000   -421.33848    1864.3669    -2431.817   -445.19632    1964.8921    6.1138654    12.525053    12.525053    12.525053   -424.32083 
  445000   -426.49032    2141.7102    19115.321   -453.89726    1862.7729    6.4490339    12.304198    12.304198    12.304198   -404.26586 
  450000   -421.21363    1992.1147    -5376.816   -446.70623    1973.5212    6.0871329    12.543361    12.543361    12.543361   -427.83666 
  455000   -420.67061    2244.5625    16056.771   -449.39372    1898.9177    6.3262803    12.383271    12.383271    12.383271   -401.63994 
  460000   -427.06201    1902.5078    4188.9307   -451.40794    1905.0081    6.3060551    12.396496    12.396496    12.396496   -422.08132 
  465000   -420.79741    2047.3352    14237.129   -446.99666    1915.6406    6.2710541    12.419516    12.419516    12.419516   -403.77481 
  470000   -431.09296    2005.4929    1568.2828   -456.75676    1890.2916    6.3551496    12.364492    12.364492    12.364492   -429.24266 
  475000   -430.78791    1759.0398    7682.5558   -453.29791     1902.962    6.3128353    12.392056    12.392056    12.392056   -421.66306 
  480000   -428.02763    2089.8972   -6384.1994   -454.77153    1923.9197    6.2440681    12.437382    12.437382    12.437382   -435.69388 
  485000   -431.59871       1795.3   -5062.4414   -454.57273    1915.6882    6.2708982    12.419619    12.419619    12.419619   -437.65177 
  490000   -424.15134    2052.7994   -12831.221   -450.42051    1964.4396    6.1152737    12.524091    12.524091    12.524091   -439.88379 
  495000   -422.93926     2139.494    6879.8064   -450.31784    1921.1633     6.253027     12.43144     12.43144     12.43144   -414.68971 
  500000   -425.33499    1835.2693    22528.522   -448.82049    1880.4746    6.3883265     12.34305     12.34305     12.34305   -398.89327 
  505000   -427.95555    2054.1549    17983.348   -454.24207    1889.0824    6.3592176    12.361855    12.361855    12.361855   -406.75188 
  510000   -427.46104    1851.6917    11082.809   -451.15669    1913.0284     6.279617    12.413868    12.413868    12.413868   -414.22796 
  515000    -421.4627    2171.1227   -5372.2619   -449.24603    1960.1975    6.1285077     12.51507     12.51507     12.51507   -428.03545 
  520000   -427.76353    1958.2895   -1160.5667   -452.82328    1921.6706    6.2513761    12.432534    12.432534    12.432534   -429.15553 
  525000   -428.26393    1973.5144   -7664.7667    -453.5185    1930.8946    6.2215129    12.452394    12.452394    12.452394   -437.50127 
  530000   -424.69605    1925.1922   -4.1695678   -449.33226    1931.5968    6.2192512    12.453903    12.453903    12.453903   -424.70107 
  535000   -428.82715    1961.6361   -3922.2288   -453.92972    1915.3015    6.2721643    12.418783    12.418783    12.418783   -433.51593 
  540000   -427.77971    1791.2539   -15743.801   -450.70194    1945.3379    6.1753209    12.483365    12.483365    12.483365   -446.89559 
  545000   -430.46812    1866.3343    14963.739   -454.35114    1865.4163    6.4398954    12.310015    12.310015    12.310015   -413.04582 
  550000   -428.73746    1818.2569    3748.1095   -452.00524    1897.1717    6.3321024    12.379475    12.379475    12.379475   -424.29924 
  555000   -427.79633    1834.1198     17577.09   -451.26711    1873.8176    6.4110219    12.328468    12.328468    12.328468   -407.23913 
  560000   -430.45681    1927.4504    8026.3397   -455.12192    1865.7824    6.4386319     12.31082     12.31082     12.31082    -421.1099 
  565000    -425.1565    2104.3655    12338.808   -452.08554    1884.6739    6.3740926    12.352231    12.352231    12.352231    -410.6421 
  570000   -426.19901    2052.9571   -16966.525    -452.4702    1948.9428    6.1638985    12.491072    12.491072    12.491072   -446.83767 
  575000   -426.78725    2020.1552    10930.972   -452.63868    1907.0585    6.2992751    12.400942    12.400942    12.400942    -413.7762 
  580000   -427.63465    2030.7544   -12303.011   -453.62171    1943.4207     6.181413    12.479263    12.479263    12.479263   -442.55805 
  585000   -425.66381    2071.7133    2173.8029   -452.17501     1923.715    6.2447327    12.436941    12.436941    12.436941   -423.05375 
  590000   -427.79262      2085.63    4922.6573   -454.48192    1911.1467    6.2857998    12.409797    12.409797    12.409797   -421.92066 
  595000   -425.11055    1994.8335   -7693.6276   -450.63794    1936.2027    6.2044567    12.463794    12.463794    12.463794   -434.40817 
  600000   -430.04355    1877.6687    3607.3791   -454.07161    1904.4858    6.3077844    12.395363    12.395363    12.395363    -425.7555 
  605000   -424.19688    2131.0431   -7968.9771   -451.46732    1947.3231    6.1690253     12.48761     12.48761     12.48761   -433.88256 
  610000   -428.58141    2311.4696   -3644.6166   -458.16072    1900.2175    6.3219529    12.386096    12.386096    12.386096     -432.904 
  615000   -422.61852    2201.7228    10224.324   -450.79342     1900.217    6.3219548    12.386095    12.386095    12.386095   -410.49224 
  620000   -426.41435    2049.7421   -12367.284   -452.64439    1933.2623    6.2138934    12.457482    12.457482    12.457482    -441.3373 
  625000     -423.879    1929.5554    23664.985   -448.57105    1897.9313    6.3295682    12.381127    12.381127    12.381127   -395.84557 
  630000    -422.1113    2162.9648   -3998.8831   -449.79023    1943.0967    6.1824437     12.47857     12.47857     12.47857   -426.96109 
  635000   -428.29916    1975.0813   -9492.0028   -453.57379    1923.4856    6.2454772    12.436447    12.436447    12.436447   -439.69474 
  640000   -425.60292    2309.9685    600.05392   -455.16302     1907.249    6.2986456    12.401355    12.401355    12.401355   -424.88861 
  645000   -424.81105    1816.5765    3333.9562   -448.05733    1950.0926    6.1602642    12.493528    12.493528    12.493528   -420.75311 
  650000   -425.40147     2148.708   -7717.1065   -452.89796    1935.1395    6.2078654    12.461513    12.461513    12.461513   -434.72234 
  655000   -429.30276    1975.2136   -14652.629   -454.57908    1943.3339     6.181689    12.479077    12.479077    12.479077   -447.07543 
  660000   -429.17112    1710.2221   -12219.862   -451.05641    1943.1973    6.1821235    12.478785    12.478785    12.478785   -443.99196 
  665000    -427.3336    1938.1916   -3020.4756   -452.13616     1916.302    6.2688896    12.420945    12.420945    12.420945   -430.94628 
  670000    -430.3554    2093.1066    2249.7293   -457.14037    1883.5276    6.3779717    12.349726    12.349726    12.349726   -427.71061 
  675000   -419.77766    2388.5352    14367.561   -450.34316    1912.3445    6.2818629    12.412389    12.412389    12.412389   -402.62866 
  680000    -429.7113    1924.3246   -1822.6925   -454.33641    1920.2953    6.2558532    12.429567    12.429567    12.429567    -431.8959 
  685000   -431.53894     1591.502   -19914.608     -451.905    1957.0941    6.1382261    12.508462    12.508462    12.508462   -455.86508 
  690000   -424.12426     2102.521     7815.774   -451.02971    1913.4039    6.2783848    12.414681    12.414681    12.414681   -414.79025 
  695000   -426.59897    2022.5708     10677.87   -452.48131    1897.9241    6.3295924    12.381111    12.381111    12.381111   -413.95006 
  700000   -424.57923    2113.5751   -2932.0347   -451.62613       1944.1    6.1792531    12.480717    12.480717    12.480717     -428.137 
  705000   -428.90124    1689.6613    5984.2766   -450.52342    1909.1285    6.2924447    12.405427    12.405427    12.405427   -421.77047 
  710000    -429.8693    1799.5077   -4093.8636   -452.89716    1927.2628    6.2332371    12.444582    12.444582    12.444582   -434.79382 
  715000   -428.12233    1803.6441   -32957.995   -451.20312    1992.7528    6.0283873    12.583974    12.583974    12.583974   -469.11478 
  720000   -426.38344    2023.2018   -3207.8743   -452.27385    1909.4831    6.2912762    12.406195    12.406195    12.406195    -430.2066 
  725000   -424.08777    1952.8555    173.06525   -449.07798    1936.4316    6.2037232    12.464286    12.464286    12.464286   -423.87859 
  730000   -424.18173    1940.2675   -4183.2463   -449.01085    1969.6605    6.0990642    12.535177    12.535177    12.535177   -429.32446 
  735000    -423.6865    2219.0391    -5074.488   -452.08299    1951.1086    6.1570564    12.495697    12.495697    12.495697   -429.86614 
  740000   -425.48364    2165.3856   -4434.7696   -453.19355    1923.2018    6.2463991    12.435835    12.435835    12.435835     -430.807 
  745000   -430.51452    1925.0118    28326.473   -455.14843    1847.0088    6.5040761     12.26939     12.26939     12.26939   -397.85942 
  750000   -421.13245     2182.864   -17173.656   -449.06602    1970.3541    6.0969173    12.536648    12.536648    12.536648   -442.25258 
  755000   -426.77073    1943.8287    6664.0515   -451.64543    1898.8559    6.3264864    12.383137    12.383137    12.383137   -418.87268 
  760000   -425.87538    2225.7001    19006.991   -454.35712     1872.092    6.4169313    12.324682    12.324682    12.324682   -403.66632 
  765000    -427.9973    1636.3016    20349.099   -448.93665    1895.6577    6.3371597    12.376181    12.376181    12.376181   -403.92073 
  770000   -422.36216    2008.5595   -3976.5073   -448.06521    1944.9739    6.1764766    12.482587    12.482587    12.482587   -427.18947 
  775000   -424.64554    2178.6813   -7595.2998   -452.52559    1940.5861     6.190442    12.473193    12.473193    12.473193   -433.84511 
  780000   -429.13085    1897.0516    17311.507   -453.40695    1878.2751    6.3958074    12.338236    12.338236    12.338236    -408.8361 
  785000   -426.41443     1807.313   -9908.9397   -449.54217    1960.1238    6.1287382    12.514913    12.514913    12.514913   -438.53716 
  790000   -427.02702    2054.3824   -15767.569   -453.31644    1942.0897    6.1856493    12.476414    12.476414    12.476414   -446.13979 
  795000    -424.2313    2010.6307     8600.126   -449.96084    1912.5894    6.2810585    12.412919    12.412919    12.412919   -413.96494 
  800000   -423.80081    2137.6312    5258.8154   -451.15555    1928.9263    6.2278614    12.448161    12.448161    12.448161    -417.4695 
  805000   -422.82571    1979.9959   -15314.931   -448.16323    1950.8149    6.1579834     12.49507     12.49507     12.49507   -441.47322 
  810000   -422.79656    2134.9044   -7745.9756    -450.1164    1957.9702    6.1354795    12.510328    12.510328    12.510328   -432.26267 
  815000   -427.14829    2154.9449   -1175.5257   -454.72459    1940.1571    6.1918108    12.472274    12.472274    12.472274    -428.5718 
  820000   -426.54054    2095.7631   -7707.0823   -453.35951    1926.5511    6.2355395     12.44305     12.44305     12.44305   -435.80799 
  825000   -421.73836    2164.9922    3729.2307   -449.44323    1923.2784    6.2461502       12.436       12.436       12.436   -417.26173 
  830000    -428.7553    1935.0174    5236.0064   -453.51724    1904.2887    6.3084374    12.394935    12.394935    12.394935   -422.53197 
  835000    -425.7829    2075.0465   -10301.119   -452.33676    1930.6509    6.2222984     12.45187     12.45187     12.45187   -438.19593 
  840000   -427.88899    2382.0866    19444.802   -458.37197    1855.9769    6.4726483    12.289216    12.289216    12.289216   -405.36394 
  845000   -421.20131    2437.6642    -10945.98    -452.3955    1946.0463    6.1730729    12.484881    12.484881    12.484881   -434.49659 
  850000   -436.35458    1720.7685   -6056.0946   -458.37484    1881.0506    6.3863704     12.34431     12.34431     12.34431    -443.4648 
  855000   -420.10643    2281.4682    -3992.158   -449.30181    1947.8409    6.1673856    12.488717    12.488717    12.488717   -424.95988 
  860000     -426.662    1890.2396    3507.6232   -450.85093    1910.7516    6.2870997    12.408942    12.408942    12.408942   -422.47882 
  865000   -429.32231    1760.6362    21607.884   -451.85274    1873.2689    6.4128998    12.327264    12.327264    12.327264   -404.05832 
  870000    -418.7253    2043.1213   -13440.855   -444.87062    1978.9169    6.0705359    12.554782    12.554782    12.554782   -435.32667 
  875000   -430.93916    1704.3377   -6046.2871   -452.74915    1911.5197    6.2845733    12.410604    12.410604    12.410604   -438.15284 
  880000   -432.93556    1921.2422    -1529.197   -457.52123    1910.9404    6.2864786     12.40935     12.40935     12.40935   -434.75946 
  885000   -432.33967    1748.5621    2216.9388   -454.71559    1903.9779     6.309467    12.394261    12.394261    12.394261   -429.70513 
  890000   -420.90919     2122.618   -4997.9442   -448.07181     1968.347    6.1031341     12.53239     12.53239     12.53239   -427.04939 
  895000   -430.57397    1745.6468   -3744.5374   -452.91258    1916.8469    6.2671075    12.422123    12.422123    12.422123   -435.05394 
  900000   -430.37832    2052.0537    -8394.676   -456.63795    1921.0548    6.2533802    12.431206    12.431206    12.431206   -440.44377 
  905000   -425.82801    2185.6947   -4538.1459    -453.7978    1914.9682    6.2732561    12.418063    12.418063    12.418063   -431.25213 
  910000    -428.9934    1855.4651   -2456.0822   -452.73733    1905.5148    6.3043781    12.397595    12.397595    12.397595   -431.91449 
  915000   -425.67915    1779.3528   -14439.321   -448.44909     1960.607    6.1272279    12.515941    12.515941    12.515941   -443.34876 
  920000   -426.48631    1965.0364    -35708.06    -451.6324    1992.4435    6.0293232    12.583323    12.583323    12.583323   -470.89234 
  925000   -425.83901    1949.8527   -14060.772    -450.7908    1945.6305    6.1743921    12.483991    12.483991    12.483991   -442.91395 
  930000   -428.46326    1982.9896    14859.835   -453.83909    1885.9319    6.3698408    12.354979    12.354979    12.354979   -410.97165 
  935000   -427.06354    2086.4749    3551.7574   -453.76364    1916.9019    6.2669277    12.422241    12.422241    12.422241   -422.81409 
  940000   -429.50093    2038.9885    579.50887   -455.59337     1903.874    6.3098114    12.394035    12.394035    12.394035    -428.8123 
  945000    -432.2401    1791.8399    5988.3433   -455.16983    1885.8655    6.3700651    12.354834    12.354834    12.354834   -425.19143 
  950000   -426.13119    1908.6894    5938.7154   -450.55622    1931.4075    6.2198607    12.453497    12.453497    12.453497   -418.97213 
  955000   -427.97075    1912.7913   -8462.2159   -452.44827    1941.4872     6.187569    12.475123    12.475123    12.475123    -438.2251 
  960000   -430.09961    2128.7579   -2280.3051    -457.3408    1901.5435    6.3175445    12.388976    12.388976    12.388976   -432.80599 
  965000   -427.91691     1697.572   -8496.5293   -449.64032    1955.4262    6.1434615    12.504907    12.504907    12.504907   -438.28676 
  970000   -426.64104    2008.0807   -14100.391   -452.33796       1937.1    6.2015827    12.465719    12.465719    12.465719   -443.68902 
  975000   -423.30669     1978.682    68.977975    -448.6274    1930.0076    6.2243723    12.450487    12.450487    12.450487    -423.2236 
  980000   -425.81761    2057.8883     13285.89   -452.15191    1896.6327    6.3339022    12.378302    12.378302    12.378302   -410.08998 
  985000   -431.77112    1752.5946    -4248.968   -454.19864    1917.6084     6.264619    12.423767    12.423767    12.423767   -436.85661 
  990000    -426.6329    1814.6655   -6409.8819   -449.85473    1938.7907    6.1961748    12.469345    12.469345    12.469345   -434.38949 
  995000   -426.28455    1671.7189   -27928.752   -447.67712    1985.8035    6.0494836    12.569329    12.569329    12.569329   -460.90059 
 1000000    -423.5623    1946.5879    3380.3319   -448.47231    1941.3765    6.1879218    12.474886    12.474886    12.474886   -419.46631 
 1003989   -424.87744    2033.6912   -11972.889   -450.90209     1957.542    6.1368216    12.509416    12.509416    12.509416   -439.50594 
Loop time of 324.053 on 96 procs for 1000000 steps with 100 atoms

Performance: 533.246 ns/day, 0.045 hours/ns, 3085.916 timesteps/s
99.9% CPU use with 96 MPI tasks x no OpenMP threads

MPI task timing breakdown:
Section |  min time  |  avg time  |  max time  |%varavg| %total
---------------------------------------------------------------
Pair    | 120.55     | 124.43     | 128.13     |  16.0 | 38.40
Neigh   | 0.28051    | 0.3102     | 0.33684    |   2.3 |  0.10
Comm    | 122.44     | 131.18     | 140.97     |  32.6 | 40.48
Output  | 0.013661   | 0.013944   | 0.02509    |   1.0 |  0.00
Modify  | 50.753     | 59.467     | 65.892     |  46.2 | 18.35
Other   |            | 8.645      |            |       |  2.67

Nlocal:    1.04167 ave 3 max 0 min
Histogram: 18 0 0 58 0 0 18 0 0 2
Nghost:    385.906 ave 400 max 364 min
Histogram: 2 4 4 13 7 11 18 11 16 10
Neighs:    68.2917 ave 182 max 0 min
Histogram: 18 2 12 23 20 4 4 5 4 4

Total # of neighbors = 6556
Ave neighs/atom = 65.56
Neighbor list builds = 34223
Dangerous builds = 0
Setting up Verlet run ...
  Unit style  : metal
  Current step: 1003989
  Time step   : 0.002
Memory usage per processor = 2.67099 Mbytes
Step TotEng Temp Press PotEng Volume Density Lx Ly Lz Enthalpy 
 1003989   -424.87744    2033.6912   -11972.889   -450.90209     1957.542    6.1368216    12.509416    12.509416    12.509416   -439.50594 
 1050000   -428.32384    1883.1189    1488.6354   -452.42165    1916.2385    6.2690973    12.420808    12.420808    12.420808    -426.5434 
 1100000   -429.00984    1882.8405    639.85635   -453.10409    1892.8881    6.3464319    12.370151    12.370151    12.370151   -428.25389 
 1150000   -425.95859    1965.5817   -6787.7175   -451.11166    1949.7471    6.1613559     12.49279     12.49279     12.49279   -434.21881 
 1200000   -427.46417    1944.6387   -10969.098   -452.34923    1935.0185    6.2082537    12.461253    12.461253    12.461253   -440.71203 
 1250000    -425.5055    1885.2589    2496.8131   -449.63069    1917.0346    6.2664938    12.422528    12.422528    12.422528   -422.51801 
 1300000   -425.73515    2124.5776    17754.632   -452.92285    1871.3542    6.4194612    12.323063    12.323063    12.323063   -404.99761 
 1350000   -431.31907    1796.8438    8282.5949   -454.31284    1880.4038    6.3885669    12.342895    12.342895    12.342895   -421.59816 
 1400000   -424.48231    2148.6495    16803.987   -451.97805    1874.7382    6.4078737    12.330487    12.330487    12.330487   -404.81963 
 1450000   -430.63999    1975.1294    3674.5585   -455.91523    1892.4952    6.3477496    12.369295    12.369295    12.369295   -426.29959 
 1500000   -428.20471    1828.6758    22585.507   -451.60582    1862.8993    6.4485965    12.304476    12.304476    12.304476   -401.94385 
 1550000   -433.69714    1727.1178   -8391.8794   -455.79864     1906.733    6.3003503    12.400236    12.400236    12.400236   -443.68422 
 1600000   -423.55141    2213.0246    23256.724   -451.87094    1877.3979    6.3987958    12.336315    12.336315    12.336315   -396.29965 
 1650000   -425.05399    2266.6557    26257.142   -454.05983    1853.2989    6.4820014    12.283303    12.283303    12.283303   -394.68135 
 1700000   -427.75742    2168.7528   -2399.9297   -455.51041     1892.513      6.34769    12.369333    12.369333    12.369333   -430.59225 
 1750000   -427.31821      1958.65   -8282.7914   -452.38257    1934.3837     6.210291     12.45989     12.45989     12.45989   -437.31842 
 1800000   -428.51042     1803.082   -7727.1299   -451.58402    1938.8846    6.1958747    12.469546    12.469546    12.469546   -437.86146 
 1850000   -426.22009    2013.2101   -1498.0843   -451.98264    1936.8762    6.2022991    12.465239    12.465239    12.465239   -428.03113 
 1900000   -425.83972    1963.6763   -1948.4458    -450.9684    1955.6924    6.1426254    12.505475    12.505475    12.505475   -428.21808 
 1950000   -428.21266    2290.7786   -8882.3962   -457.52719    1912.0225    6.2829208    12.411692    12.411692    12.411692   -438.81283 
 2000000   -429.01261    1735.0928    10350.078   -451.21617    1901.0599    6.3191517    12.387926    12.387926    12.387926   -416.73174 
 2050000   -433.20536    1957.7664    20147.288   -458.25842     1847.665    6.5017663    12.270843    12.270843    12.270843   -409.97107 
 2100000   -423.37326    2114.6216   -6042.0293   -450.43355    1949.9806    6.1606181    12.493288    12.493288    12.493288    -430.7269 
 2150000   -427.91847    1961.8403    4607.6946   -453.02366    1898.3455    6.3281871    12.382027    12.382027    12.382027   -422.45903 
 2200000   -427.04093    1971.9581    4158.6272   -452.27559    1919.9764    6.2568924    12.428879    12.428879    12.428879   -422.05742 
 2250000   -429.38154    1913.6977   -2039.6116   -453.87066    1924.3838    6.2425624    12.438382    12.438382    12.438382   -431.83133 
 2300000   -422.87788    2040.8922   -1116.0025   -448.99468    1929.9967    6.2244075    12.450464    12.450464    12.450464   -424.22223 
 2350000   -429.02493    1997.2789    9422.1916   -454.58362    1879.8914    6.3903085    12.341774    12.341774    12.341774   -417.96953 
 2400000   -420.31197    2320.7363   -4891.7573   -450.00986    1942.8359    6.1832737    12.478011    12.478011    12.478011   -426.24383 
 2450000   -425.67877    2002.0615    6493.5211   -451.29866    1913.6691    6.2775148    12.415254    12.415254    12.415254   -417.92279 
 2500000   -430.75675    1921.1918   -9532.3397   -455.34177     1919.776    6.2575454    12.428447    12.428447    12.428447   -442.17869 
 2550000   -425.31023    2119.0902   -2936.9477    -452.4277    1915.3024    6.2721614    12.418785    12.418785    12.418785   -428.82116 
 2600000   -424.63966    1978.7803    29591.006   -449.96162    1882.2861    6.3821784    12.347012    12.347012    12.347012   -389.87523 
 2650000   -429.47527    1704.0946    1676.9425   -451.28215    1913.7219    6.2773414    12.415368    12.415368    12.415368   -427.47225 
 2700000   -423.31802    2248.2161    10948.603   -452.08789    1890.6399    6.3539787    12.365251    12.365251    12.365251   -410.39818 
 2750000   -432.75195    1886.4846   -18274.245   -456.89283    1943.5259    6.1810784    12.479488    12.479488    12.479488   -454.91959 
 2800000   -424.70986    2262.9239    5290.7161   -453.66794    1923.1736    6.2464907    12.435774    12.435774    12.435774   -418.35914 
 2850000   -433.21555    1733.0411    21965.468   -455.39285     1855.928    6.4728189    12.289108    12.289108    12.289108    -407.7712 
 2900000   -424.30849    1891.1835   -6910.5898    -448.5095     1940.419    6.1909753    12.472835    12.472835    12.472835     -432.678 
 2950000   -426.51411    1874.1058   -7981.8258   -450.49658    1941.7866    6.1866147    12.475765    12.475765    12.475765   -436.18783 
 3000000    -428.0322    2140.2243    4029.4093   -455.42012    1891.8164    6.3500273    12.367815    12.367815    12.367815   -423.27435 
 3050000   -429.70314    1841.6465   -7737.3383   -453.27024    1934.1694    6.2109791     12.45943     12.45943     12.45943   -439.04376 
 3100000   -429.85545    1832.4615    7682.2899   -453.30501    1880.6959    6.3875747    12.343534    12.343534    12.343534   -420.83768 
 3150000   -432.69796    1804.4987   -11575.443   -455.78969    1935.9489      6.20527     12.46325     12.46325     12.46325   -446.68485 
 3200000   -421.10761    2111.2371   -9095.3332   -448.12459    1957.1205    6.1381431    12.508518    12.508518    12.508518   -432.21791 
 3250000   -430.43408    1757.4991    38881.325   -452.92436    1836.5338    6.5411732    12.246152    12.246152    12.246152   -385.86541 
 3300000   -431.42731     1830.058   -3347.0665   -454.84611     1908.647    6.2940322    12.404384    12.404384    12.404384   -435.41462 
 3350000   -427.63959    1768.3375    536.31309   -450.26857    1915.4048    6.2718262    12.419007    12.419007    12.419007   -426.99843 
 3400000   -429.31184    1829.1807    7363.4476   -452.71941    1907.4853    6.2978654    12.401867    12.401867    12.401867   -420.54522 
 3450000    -429.6868    1772.9469    73.049718   -452.37477    1902.3958    6.3147143    12.390827    12.390827    12.390827   -429.60006 
 3500000   -428.88579    1761.6696    11933.969   -451.42944    1907.1008    6.2991352    12.401034    12.401034    12.401034   -414.68056 
 3550000    -428.6943    1947.3479   -2133.3484   -453.61404     1921.595    6.2516221    12.432371    12.432371    12.432371   -431.25297 
 3600000    -432.8887    1867.9641   -7746.3135   -456.79258    1918.9621    6.2601997     12.42669     12.42669     12.42669   -442.16663 
 3650000   -430.27129    1830.9751    10512.424   -453.70183    1890.0443    6.3559811    12.363952    12.363952    12.363952   -417.87007 
 3700000   -425.07407    1806.0993    571.49692   -448.18628    1928.4482    6.2294055    12.447133    12.447133    12.447133   -424.38619 
 3750000   -426.73841    1896.7484   -12201.776   -451.01063    1951.7043    6.1551772    12.496968    12.496968    12.496968    -441.6021 
 3800000   -429.06136    1992.6606   -13301.473   -454.56095    1930.8638    6.2216122    12.452328    12.452328    12.452328   -445.09163 
 3850000   -431.51415    1701.7502   -8584.4279   -453.29103    1932.9853    6.2147839    12.456887    12.456887    12.456887   -441.87105 
 3900000   -429.49123     1993.042    2324.9423    -454.9957    1889.8956    6.3564812    12.363628    12.363628    12.363628   -426.74877 
 3950000   -430.08562    1809.4925    11074.348   -453.24125    1886.9478    6.3664112    12.357197    12.357197    12.357197   -417.04291 
 4000000   -431.69444    1715.5621   -8006.0356   -453.64807    1932.0084    6.2179261    12.454788    12.454788    12.454788   -441.34864 
 4050000   -428.82206    1932.3737    21422.969   -453.55017    1877.9069    6.3970616    12.337429    12.337429    12.337429   -403.71225 
 4100000   -427.85593    1981.0554    21848.457     -453.207    1869.2886    6.4265548    12.318527    12.318527    12.318527   -402.36493 
 4150000    -422.5633    2019.8883   -2406.0954   -448.41132    1945.2974    6.1754495    12.483279    12.483279    12.483279   -425.48469 
 4200000   -428.25315    1996.1443    124.97296   -453.79732    1919.6955    6.2578081    12.428273    12.428273    12.428273   -428.10341 
 4250000   -423.29767    2105.7247   -1671.9651   -450.24411    1953.2096    6.1504336     12.50018     12.50018     12.50018   -425.33596 
 4300000   -430.33304    1675.6449    1656.5771   -451.77585    1915.6371    6.2710656    12.419509    12.419509    12.419509   -428.35236 
 4350000   -426.92568    1753.1652    -3216.201    -449.3605    1933.9261    6.2117605    12.458907    12.458907    12.458907   -430.80783 
 4400000    -426.1334    1845.5876    177.37831   -449.75093    1945.2396    6.1756329    12.483155    12.483155    12.483155   -425.91804 
 4450000   -429.57891    1902.1165   -849.83411   -453.91983    1926.9372    6.2342904    12.443881    12.443881    12.443881   -430.60101 
 4500000    -429.0555    1825.5372   -10122.335   -452.41646     1926.921    6.2343428    12.443846    12.443846    12.443846   -441.22953 
 4550000   -428.76075    1894.7609   -12073.241   -453.00754    1936.1666    6.2045725    12.463717    12.463717    12.463717   -443.35078 
 4600000   -431.25764    1814.9435   -11812.105   -454.48303    1941.7752    6.1866511     12.47574     12.47574     12.47574   -445.57345 
 4650000   -426.34591    2169.0464    19039.225   -454.10266    1888.1076    6.3625005    12.359728    12.359728    12.359728   -403.90886 
 4700000   -427.46144    1730.4376   -5480.3227   -449.60543    1940.2518    6.1915087    12.472477    12.472477    12.472477   -434.09817 
 4750000   -422.79071    2291.0835    2686.7165   -452.10915    1931.5449    6.2194183    12.453792    12.453792    12.453792   -419.55168 
 4800000   -434.07038    1786.5025   -3627.8761   -456.93182    1898.2955    6.3283538    12.381919    12.381919    12.381919   -438.36878 
 4850000   -425.82107    2001.8123   -8635.8199   -451.43777    1936.7184    6.2028046    12.464901    12.464901    12.464901   -436.26009 
 4900000   -426.96151    1754.2351   -6360.5288   -449.41002    1949.6155    6.1617717    12.492509    12.492509    12.492509   -434.70134 
 4950000   -427.32045    1798.4732   -6817.9744   -450.33507    1931.0913    6.2208793    12.452817    12.452817    12.452817    -435.5381 
 5000000   -426.04307    1890.2238    10854.295    -450.2318    1914.2137    6.2757286    12.416432    12.416432    12.416432   -413.07482 
 5050000   -428.14503     1949.914    13410.151    -453.0976    1901.4524    6.3178474    12.388778    12.388778    12.388778   -412.22995 
 5100000   -424.68595    2188.5931    9526.7701   -452.69284    1902.5693    6.3141382    12.391204    12.391204    12.391204     -413.373 
 5150000   -429.76355    1899.3224   -16802.684   -454.06871    1955.0802     6.144549     12.50417     12.50417     12.50417   -450.26728 
 5200000   -431.25388    1742.8887    14353.677    -453.5572    1882.1759     6.382552    12.346771    12.346771    12.346771   -414.39173 
 5250000   -425.98951    1882.7725   -8799.5671   -450.08289    1960.7481    6.1267871    12.516241    12.516241    12.516241   -436.75844 
 5300000   -429.42461    1860.6977   -6367.2531    -453.2355    1935.9857    6.2051522    12.463329    12.463329    12.463329   -437.11846 
 5350000   -437.50572    1609.5104   -4243.8087   -458.10223     1885.577    6.3710397    12.354204    12.354204    12.354204   -442.50019 
 5400000    -428.5915    1962.5408     11238.81   -453.70565    1888.8067    6.3601456    12.361253    12.361253    12.361253   -415.34206 
 5450000    -429.7739    1870.1031   -14095.483   -453.70515    1934.1715    6.2109723    12.459434    12.459434    12.459434   -446.79017 
 5500000   -426.92356     1930.855    6052.0275   -451.63224    1900.8549    6.3198332    12.387481    12.387481    12.387481   -419.74331 
 5550000   -434.08892    1724.9189   -9940.4249   -456.16228    1908.5343     6.294404     12.40414     12.40414     12.40414   -445.93009 
 5600000    -431.5459    1916.3376    28465.087    -456.0688    1858.6232    6.4634325    12.295054    12.295054    12.295054   -398.52465 
 5650000   -432.10481    1799.6005    6574.7628   -455.13385    1884.2662    6.3754716     12.35134     12.35134     12.35134   -424.37245 
 5700000   -436.22257    1862.1467    9123.4566     -460.052    1867.5729    6.4324588    12.314757    12.314757    12.314757   -425.58783 
 5750000    -429.5886    1925.9746    1419.7389   -454.23482    1908.2851     6.295226      12.4036      12.4036      12.4036   -427.89761 
 5800000   -427.17614     2154.977    5275.1507   -454.75285    1884.0232     6.376294    12.350809    12.350809    12.350809   -420.97301 
 5850000   -433.03291    1740.5337    9345.4702   -455.30609    1886.1841    6.3689891    12.355529    12.355529    12.355529   -422.03083 
 5900000   -433.03827    1713.5038    5387.4318   -454.96556      1897.46    6.3311405    12.380102    12.380102    12.380102   -426.65793 
 5950000   -423.83353     2239.659   -7309.4377    -452.4939    1944.1805    6.1789972    12.480889    12.480889    12.480889   -432.70326 
 6000000   -427.12664    1808.0151    8373.4301   -450.26336    1898.0489    6.3291763    12.381382    12.381382    12.381382   -417.20689 
 6050000   -427.73717    1752.0429    -21676.57   -450.15763    1979.3992    6.0690567    12.555802    12.555802    12.555802   -454.51735 
 6100000   -427.00535     1863.802    5005.2591   -450.85596    1926.0449    6.2371784     12.44196     12.44196     12.44196   -420.98831 
 6150000   -426.28236    2009.2815   -11896.659   -451.99465    1938.5562    6.1969243    12.468842    12.468842    12.468842   -440.67675 
 6200000   -426.32838    1749.7776   -8758.2417   -448.71985    1945.1882    6.1757963    12.483045    12.483045    12.483045   -436.96168 
 6250000   -426.87292    2000.8644    14212.325   -452.47749    1883.5101    6.3780309    12.349688    12.349688    12.349688   -410.16498 
 6300000   -428.33369    1827.4495    -13006.68   -451.71911    1943.5019    6.1811546    12.479437    12.479437    12.479437    -444.1113 
 6350000   -434.89216    1682.8127   -5401.2006    -456.4267    1905.0016    6.3060766    12.396482    12.396482    12.396482   -441.31424 
 6400000   -431.30106    1904.2382    -11515.27   -455.66913    1930.5163    6.2227322    12.451581    12.451581    12.451581    -445.1762 
 6450000   -426.24359    1740.1936    6287.8068   -448.51242    1927.5261    6.2323856    12.445149    12.445149    12.445149   -418.67893 
 6500000   -427.57445    1927.0106    11857.166   -452.23393     1877.857    6.3972315     12.33732     12.33732     12.33732   -413.67707 
 6550000   -427.88457    1761.9888   -3830.5669   -450.43231    1936.2956     6.204159    12.463994    12.463994    12.463994   -432.51396 
 6600000   -429.46976    1976.4452   -11072.172   -454.76184    1923.4245    6.2456758    12.436315    12.436315    12.436315   -442.76198 
 6650000   -427.56027    2261.4406    1108.9653   -456.49937    1908.1139    6.2957906    12.403229    12.403229    12.403229   -426.23955 
 6700000   -429.07944    2308.6728    4195.1811   -458.62296    1869.6997    6.4251417     12.31943     12.31943     12.31943   -424.18377 
 6750000   -427.61745    1935.9441    -8939.724   -452.39125    1939.7594    6.1930803    12.471421    12.471421    12.471421    -438.4408 
 6800000   -427.36714    2124.6226    9709.5538   -454.55542    1890.6833    6.3538328    12.365346    12.365346    12.365346   -415.90917 
 6850000   -430.94175    1905.8748     6274.153   -455.33076     1893.833    6.3432658    12.372208    12.372208    12.372208   -423.52546 
 6900000   -429.33998    2007.3586    -14138.09   -455.02765    1932.9581    6.2148713    12.456828    12.456828    12.456828   -446.39698 
 6950000   -424.98934     2130.945   -22136.374   -452.25852     1968.065    6.1040086    12.531791    12.531791    12.531791   -452.18099 
 7000000   -429.71546    1746.2236    3421.4051   -452.06145    1907.5409     6.297682    12.401987    12.401987    12.401987   -425.64195 
 7050000   -426.39168    1921.6486   -18464.301   -450.98255    1970.5108    6.0964325     12.53698     12.53698     12.53698   -449.10086 
 7100000   -431.62055    1857.5125    11805.111   -455.39068    1875.6371    6.4048028    12.332457    12.332457    12.332457   -417.80054 
 7150000   -430.38142    1787.4616   -7304.9077   -453.25513    1918.3792    6.2621018    12.425432    12.425432    12.425432   -439.12801 
 7200000    -432.8964     1686.448   -1247.3293   -454.47746    1905.4634     6.304548    12.397484    12.397484    12.397484   -434.37984 
 7250000   -434.15907    1730.4109   -13070.896   -456.30272    1940.9571    6.1892588    12.473988    12.473988    12.473988   -449.99381 
 7300000   -425.35888    2028.2956   -7093.4641   -451.31448    1956.0248    6.1415815    12.506183    12.506183    12.506183   -434.01897 
 7350000   -424.72979     1937.646    2469.1911   -449.52537    1929.2632    6.2267739    12.448886    12.448886    12.448886   -421.75651 
 7400000   -427.52483    2128.5061   -4784.6011    -454.7628    1923.1577    6.2465424     12.43574     12.43574     12.43574   -433.26798 
 7450000   -434.53688    1736.7954   -22622.745   -456.76223    1924.1902    6.2431902    12.437965    12.437965    12.437965   -461.70646 
 7500000   -433.26601    1792.1831    4077.5038   -456.20013    1881.0608    6.3863357    12.344332    12.344332    12.344332   -428.47875 
 7550000   -434.43727    1859.4221   -1327.1293   -458.23184     1889.026    6.3594072    12.361732    12.361732    12.361732   -436.00201 
 7600000   -430.86822    1805.0173     5438.099   -453.96659    1891.2558    6.3519096    12.366594    12.366594    12.366594   -424.44893 
 7650000   -428.89372    2035.2963    -4904.285   -454.93891    1910.9732    6.2863707    12.409421    12.409421    12.409421   -434.74324 
 7700000   -427.09085    2095.5594    8487.2202    -453.9072    1894.1574    6.3421792    12.372915    12.372915    12.372915   -417.05691 
 7750000   -422.56309     2196.346   -18373.189   -450.66919    1963.1038    6.1194349    12.521252    12.521252    12.521252   -445.07526 
 7800000   -429.44921    1922.2122   -3499.8501   -454.04728    1913.1216     6.279311     12.41407     12.41407     12.41407   -433.62829 
 7850000    -429.1239    1939.2526   -9776.7653   -453.94004    1934.5698    6.2096935     12.46029     12.46029     12.46029   -440.92899 
 7900000   -430.57805    1792.0328    795.32258   -453.51025    1921.5697    6.2517043    12.432316    12.432316    12.432316   -429.62418 
 7950000   -429.94671     1845.182    1431.3305   -453.55905    1892.8896    6.3464271    12.370154    12.370154    12.370154   -428.25567 
 8000000   -430.94924    1800.1863   -6409.2368   -453.98578     1929.224    6.2269005    12.448802    12.448802    12.448802   -438.66677 
 8050000   -433.66392    1781.8681    8122.4586   -456.46605    1866.2254    6.4371035    12.311795    12.311795    12.311795   -424.20283 
 8100000   -436.09666    1712.5304    11485.839   -458.01149    1851.0461      6.48989    12.278324    12.278324    12.278324    -422.8267 
 8150000   -430.89039    1728.0607    10614.252   -453.00396    1890.3333    6.3550094    12.364583    12.364583    12.364583   -418.36713 
 8200000   -427.70129    1997.1107    7966.4894   -453.25782    1895.5427    6.3375443     12.37593     12.37593     12.37593   -418.27609 
 8250000   -427.52756    2104.2829    1125.3579   -454.45555    1914.8991    6.2734824    12.417914    12.417914    12.417914   -426.18255 
 8300000   -429.11639    1967.2696   -8641.5589   -454.29105    1929.3045    6.2266405    12.448975    12.448975    12.448975   -439.52236 
 8350000   -427.36167    2003.9438   -10882.793   -453.00565    1923.8803     6.244196    12.437297    12.437297    12.437297   -440.42964 
 8400000   -430.56702    1951.6223    16398.809   -455.54145    1873.8815    6.4108035    12.328608    12.328608    12.328608   -411.38722 
 8450000   -428.90738    1914.7443   -20494.961    -453.4099    1947.9538     6.167028    12.488958    12.488958    12.488958   -453.82551 
 8500000   -431.39127    2003.1172    15437.269   -457.02467    1854.2844    6.4785564     12.28548     12.28548     12.28548   -413.52489 
 8550000   -434.05802     1691.856    4161.1198   -455.70829    1879.5666    6.3914128    12.341063    12.341063    12.341063   -429.17647 
 8600000   -430.68262    1800.8336    -3181.948   -453.72745    1916.5094    6.2682112    12.421393    12.421393    12.421393   -434.48884 
 8650000   -437.22191    1554.5115    6030.0178   -457.11462    1888.6203    6.3607733    12.360847    12.360847    12.360847   -430.11382 
 8700000   -426.36752     2151.828    16789.641   -453.90394    1867.7108    6.4319838     12.31506     12.31506     12.31506   -406.79527 
 8750000   -430.61967    1979.7648     2121.264   -455.95423      1902.21    6.3153309    12.390424    12.390424    12.390424   -428.10116 
 8800000   -432.36493    1875.2661    13746.867   -456.36225     1863.599    6.4461752    12.306016    12.306016    12.306016   -416.37503 
 8850000   -425.98667    1961.8574   -14434.389   -451.09208    1933.5065    6.2131085    12.458006    12.458006    12.458006   -443.40609 
 8900000   -430.18315    1792.5975   -14733.283   -453.12258    1944.9463    6.1765643    12.482528    12.482528    12.482528   -448.06848 
 8950000   -426.91204    2127.5104    19238.918   -454.13727     1891.466    6.3512038    12.367052    12.367052    12.367052   -404.19934 
 9000000   -433.46866    1580.6943   -5408.7469   -453.69641    1923.2411    6.2462713     12.43592     12.43592     12.43592   -439.96128 
 9050000    -429.7161    1831.0858    1538.2912   -453.14805    1908.9829    6.2929248    12.405112    12.405112    12.405112   -427.88323 
 9100000   -429.80213    1970.7846   -5809.6928   -455.02177      1905.12    6.3056847    12.396739    12.396739    12.396739   -436.71033 
 9150000   -434.18525    1620.3543    4279.6121   -454.92052     1882.835    6.3803179    12.348212    12.348212    12.348212   -429.15596 
 9200000   -428.68004    2035.9375   -8992.2319   -454.73344    1919.1475    6.2595949     12.42709     12.42709     12.42709   -439.45128 
 9250000   -431.37739    2035.8213    8877.7077   -457.42929    1882.4215    6.3817193    12.347308    12.347308    12.347308   -420.94683 
 9300000   -432.22734    1920.5438   -9727.9281   -456.80407    1911.4254    6.2848833      12.4104      12.4104      12.4104   -443.83293 
 9350000   -433.02234    1787.0331   -11481.904   -455.89056    1915.8718    6.2702974    12.420016    12.420016    12.420016   -446.75232 
 9400000   -429.17242    1772.5579    2593.2707    -451.8554    1921.9973    6.2503136    12.433238    12.433238    12.433238   -426.06149 
 9450000   -437.11174    1579.6297   -3221.8478   -457.32587    1898.5478    6.3275131    12.382467    12.382467    12.382467   -440.92957 
 9500000   -423.67708    1977.8563    16320.127   -448.98722    1905.6484     6.303936    12.397885    12.397885    12.397885   -404.26572 
 9550000   -423.34794     2191.597   -19565.363   -451.39327    1962.7839    6.1204321    12.520572    12.520572    12.520572   -447.31695 
 9600000   -427.68341    2246.1872     747.0998   -456.42731    1918.7941    6.2607478    12.426327    12.426327    12.426327   -426.78867 
 9650000   -425.37312    2064.9848   -9533.5357   -451.79822     1946.843    6.1705468    12.486584    12.486584    12.486584   -436.95755 
 9700000   -430.70698    1737.9157    3974.2851   -452.94666    1894.7102    6.3403288    12.374118    12.374118    12.374118   -426.00705 
 9750000   -431.26989    1805.1949    1155.2512   -454.37053    1903.7875    6.3100979    12.393848    12.393848    12.393848   -429.89717 
 9800000    -429.4595    1874.4356   -5393.7871   -453.44619    1914.3089    6.2754164    12.416638    12.416638    12.416638   -435.90409 
 9850000   -436.03897       1699.6    3937.1162   -457.78833    1877.1302    6.3997082    12.335728    12.335728    12.335728   -431.42619 
 9900000   -426.30117    2036.0383   -2233.4559   -452.35586    1919.4898    6.2584784    12.427829    12.427829    12.427829   -428.97697 
 9950000   -430.60114    2013.0429   -2311.0324   -456.36156    1898.3882    6.3280449     12.38212     12.38212     12.38212   -433.33944 
10000000   -433.07128    1726.5191    13646.415   -455.16513    1873.9393    6.4106057    12.328735    12.328735    12.328735   -417.11015 
10050000   -427.47925    1994.7451   -13003.507   -453.00551    1952.1471    6.1537809    12.497914    12.497914    12.497914   -443.32317 
10100000   -431.61555    1934.2204   -6832.9197   -456.36729    1913.7283    6.2773204    12.415382    12.415382    12.415382   -439.77717 
10150000   -424.27871    2115.5222   -10491.429   -451.35052    1932.8154    6.2153302    12.456522    12.456522    12.456522   -436.93524 
10200000   -433.59969    1862.3735   -6313.3426   -457.43203     1906.863    6.2999208    12.400518    12.400518    12.400518   -441.11364 
10250000    -433.3119    1789.2589    14521.375    -456.2086    1869.5439    6.4256774    12.319088    12.319088    12.319088   -416.36723 
10300000   -441.25829    1796.4611    1600.9923   -464.24716    1849.4319    6.4955544    12.274754    12.274754    12.274754   -439.41023 
10350000   -430.84009    1849.8555    -2808.416   -454.51224    1902.3839    6.3147536    12.390801    12.390801    12.390801   -434.17474 
10400000   -431.15672    1865.2865    8993.2871   -455.02634    1895.9783    6.3360884    12.376878    12.376878    12.376878   -420.51428 
10450000   -428.63195    2057.7997    2868.6199   -454.96511    1912.6867     6.280739    12.413129    12.413129    12.413129   -425.20738 
10500000   -428.92653    1826.9851    2606.9632   -452.30601    1914.5003    6.2747892    12.417051    12.417051    12.417051   -425.81137 
10550000   -430.29715    1991.6974    6716.9347   -455.78441     1880.408    6.3885528    12.342904    12.342904    12.342904   -422.41376 
10600000   -433.80737    1715.8408    -513.7128   -455.76457    1912.4378    6.2815564    12.412591    12.412591    12.412591   -434.42056 
10650000   -426.12291    1833.4068   -7816.6102   -449.58456    1953.1718    6.1505526      12.5001      12.5001      12.5001   -435.65193 
10700000   -432.72033    1646.8162    2863.9358   -453.79423    1894.6317    6.3405915    12.373948    12.373948    12.373948   -429.33362 
10750000   -428.59672    1702.1147   -9259.9871   -450.37826    1930.5044    6.2227703    12.451555    12.451555    12.451555   -439.75432 
10800000   -427.00345    1832.7868   -423.04146   -450.45717    1924.4161    6.2424575    12.438452    12.438452    12.438452   -427.51157 
10850000   -425.58006    2034.6043    14810.672   -451.61639    1888.5769    6.3609197    12.360752    12.360752    12.360752   -408.12187 
10900000   -427.16389      2107.65    6380.1543   -454.13497    1903.6135    6.3106748     12.39347     12.39347     12.39347   -419.58336 
10950000    -433.8831     1865.154   -6710.1852   -457.75102    1901.9419    6.3162212    12.389841    12.389841    12.389841   -441.84875 
11000000   -434.28509    1471.8987   -5278.8878   -453.12061    1902.4524    6.3145263     12.39095     12.39095     12.39095   -440.55333 
11050000   -432.78954    1899.1382   -4432.1518   -457.09235    1895.5801    6.3374193    12.376012    12.376012    12.376012   -438.03335 
11100000    -433.3402    1638.8812   -14324.791   -454.31256    1924.4394    6.2423818    12.438502    12.438502    12.438502   -450.54629 
11150000   -437.11959    1575.4212   -11390.143   -457.27987    1911.2974    6.2853043    12.410123    12.410123    12.410123   -450.70733 
11200000   -433.32786    1702.4766   -5634.3291   -455.11404    1926.2314    6.2365747    12.442362    12.442362    12.442362   -440.10179 
11250000   -435.72745    1708.2027   -4502.8898    -457.5869    1911.8841    6.2833754    12.411393    12.411393    12.411393   -441.10076 
11300000   -428.99103    2144.0714    1249.2001   -456.42819     1895.751    6.3368478    12.376384    12.376384    12.376384   -427.51293 
11350000   -429.11537    1804.9888   -1207.2738   -452.21336    1930.1363    6.2239571    12.450764    12.450764    12.450764   -430.56976 
11400000   -432.87891    1842.1907    5951.9643   -456.45297    1897.7396    6.3302075     12.38071     12.38071     12.38071   -425.82895 
11450000   -433.46351    1588.3897    10482.793   -453.78975    1886.9147    6.3665228    12.357125    12.357125    12.357125   -421.11772 
11500000   -429.58581    1961.9067    46.513033   -454.69185    1895.6857    6.3370663    12.376242    12.376242    12.376242   -429.53078 
11550000   -430.83911    1991.8378   -16510.122   -456.32817    1923.5941     6.245125    12.436681    12.436681    12.436681   -450.66138 
11600000   -430.98726    1719.8603   -338.40223   -452.99589     1927.738    6.2317004    12.445605    12.445605    12.445605   -431.39442 
11650000   -431.50134    1605.2525    2547.7411   -452.04336    1908.1622    6.2956313    12.403334    12.403334    12.403334   -428.46702 
11700000   -436.28598    1728.0658    16531.892   -458.39962    1838.5231    6.5340955    12.250572    12.250572    12.250572   -417.31537 
11750000   -435.29189    1526.2563   -24550.098   -454.82302    1953.2162    6.1504126    12.500195    12.500195    12.500195   -465.22096 
11800000   -429.00601    1889.1865   -17646.607   -453.18147    1954.0151    6.1478982    12.501899    12.501899    12.501899   -450.52782 
11850000   -433.79942    1796.6194   -7124.3236   -456.79032    1911.6339     6.284198    12.410851    12.410851    12.410851    -442.2998 
11900000   -435.57428    1711.2254    11647.375   -457.47241     1862.418    6.4502628    12.303416    12.303416    12.303416   -422.03502 
11950000   -428.98629    1962.5627   -935.90358   -454.10072     1930.456    6.2229265    12.451451    12.451451    12.451451   -430.11396 
12000000   -434.41788    1708.3737   -11110.526   -456.27952    1909.9919    6.2896004    12.407297    12.407297    12.407297     -447.663 
12050000   -429.57645    1856.1286    6273.0832   -453.32887     1899.162    6.3254665    12.383802    12.383802    12.383802   -422.14056 
12100000   -437.97405    1658.6516    13014.693   -459.19941    1852.6107    6.4844092    12.281782    12.281782    12.281782   -422.92505 
12150000   -436.18427    1460.9753   -6531.7291   -454.88001     1897.472    6.3311005    12.380128    12.380128    12.380128   -443.91986 
12200000   -432.56457    1689.6422   -9405.1876    -454.1865    1919.5314    6.2583429    12.427919    12.427919    12.427919   -443.83271 
12250000   -431.93092     1757.208    974.38362   -454.41748    1918.2595    6.2624924    12.425173    12.425173    12.425173   -430.76431 
12300000   -431.57374    1799.4743   -2435.1006   -454.60117    1917.9744    6.2634233    12.424558    12.424558    12.424558   -434.48881 
12350000   -430.69092    1763.3587   -27716.687   -453.25619    1957.5044    6.1369394    12.509336    12.509336    12.509336   -464.55456 
12400000   -436.16638    1576.6251   -13295.403   -456.34206    1911.4363    6.2848476    12.410424    12.410424    12.410424   -452.02812 
12450000   -435.37349    1833.7857   -11767.515   -458.83999    1917.8832    6.2637213    12.424361    12.424361    12.424361   -449.45978 
12500000    -434.0146    1694.9555    31.611783   -455.70453    1912.1339    6.2825546    12.411933    12.411933    12.411933   -433.97688 
12550000   -438.19309    1720.0347     1763.992   -460.20395    1872.1202    6.4168347    12.324744    12.324744    12.324744   -436.13189 
12600000   -432.62076    1952.2156   -15348.422   -457.60279    1919.3233    6.2590216     12.42747     12.42747     12.42747   -451.00737 
12650000   -433.09129    1765.5716     10106.05   -455.68488    1886.0927    6.3692977     12.35533     12.35533     12.35533   -421.19439 
12700000    -440.2808    1625.2848   -5362.2921   -461.07917    1891.8425    6.3499399    12.367872    12.367872    12.367872   -446.61257 
12750000   -431.07188    1987.6071    5612.6629    -456.5068    1878.9981    6.3933466    12.339819    12.339819    12.339819   -424.48947 
12800000   -431.60122    1892.7328    516.78016   -455.82206    1891.1038    6.3524202    12.366262    12.366262    12.366262   -430.99125 
12850000   -436.56871    1799.6616    -15220.64   -459.59854    1905.7071     6.303742    12.398012    12.398012    12.398012   -454.67288 
12900000   -432.10765    1933.8052   -12136.712   -456.85408      1913.95    6.2765934    12.415862    12.415862    12.415862   -446.60609 
12950000   -438.10444    1534.5795    1903.9092   -457.74208    1877.4483    6.3986239    12.336425    12.336425    12.336425   -435.87342 
13000000   -434.32514      1692.68    3663.9483   -455.98595    1875.9766    6.4036438    12.333201    12.333201    12.333201   -430.03505 
13050000   -427.64484    2023.7854    8717.6437   -453.54273    1900.5123    6.3209723    12.386736    12.386736    12.386736   -417.30392 
13100000   -434.60709    1780.6439    -8404.509   -457.39355    1905.5443    6.3042807    12.397659    12.397659    12.397659   -444.60297 
13150000    -431.7264    1828.0797   -13164.076   -455.11989    1928.5507    6.2290744    12.447353    12.447353    12.447353   -447.57209 
13200000   -431.11592    1698.5316    11638.268   -452.85162    1886.5175    6.3678636    12.356257    12.356257    12.356257   -417.41219 
13250000   -435.55568    1618.2825   -23038.136   -456.26444    1930.1399    6.2239457    12.450771    12.450771    12.450771   -463.30969 
13300000   -438.62494     1546.636   -2792.3388   -458.41686    1890.8317    6.3533341    12.365669    12.365669    12.365669   -441.92036 
13350000   -429.66312    2055.2444    15045.517   -455.96358    1856.9611     6.469218    12.291388    12.291388    12.291388     -412.225 
13400000   -428.87724    1835.5817    7557.3094   -452.36673    1886.4417    6.3681193    12.356092    12.356092    12.356092   -419.97908 
13450000   -433.32956    1833.2307   -3083.1876   -456.78896    1896.9756    6.3327572    12.379048    12.379048    12.379048   -436.98005 
13500000   -431.11629    1756.7627   -3455.0329   -453.59715     1922.225    6.2495733    12.433729    12.433729    12.433729   -435.26149 
13550000   -431.92918    2077.3834    7328.8866   -458.51295    1889.5926    6.3575006    12.362967    12.362967    12.362967   -423.28556 
13600000   -436.61752     1817.119    278.75579   -459.87075    1872.4395    6.4157403    12.325445    12.325445    12.325445   -436.29175 
13650000   -433.76789    1716.6932    12834.743   -455.73599    1873.3326    6.4126817    12.327404    12.327404    12.327404   -418.76097 
13700000   -431.81275     1832.992   -411.84646    -455.2691     1898.707    6.3269826    12.382813    12.382813    12.382813   -432.30082 
13750000   -429.61085    2059.6929   -3265.7143   -455.96824    1905.4007    6.3047558    12.397347    12.397347    12.397347   -433.49463 
13800000   -431.32529    1740.7032   -3257.0408   -453.60064     1923.219    6.2463433    12.435872    12.435872    12.435872   -435.23497 
13850000   -436.25337    1871.5767    2775.9695   -460.20348    1881.2141    6.3858152    12.344668    12.344668    12.344668   -432.99393 
13900000   -438.18165    1595.8557     5563.256   -458.60343    1877.9166    6.3970283    12.337451    12.337451    12.337451   -431.66094 
13950000   -431.71681    1873.0733   -3122.7496   -455.68607    1903.5437    6.3109063    12.393319    12.393319    12.393319   -435.42695 
14000000   -435.61322    2054.6857    6677.5852   -461.90653    1857.8804    6.4660168    12.293416    12.293416    12.293416   -427.86991 
14050000   -432.23155    1949.8019    22388.161   -457.18268    1864.8245     6.441939    12.308713    12.308713    12.308713   -406.17325 
[...]
101340000   -485.03238    334.48616   -7334.4578   -489.31272    1751.6122    6.8583022    12.054411    12.054411    12.054411   -493.05093 
101345000   -486.14446    286.98743   -2831.0752   -489.81697     1738.582    6.9097033    12.024446    12.024446    12.024446   -489.21657 
101350000   -484.89412    333.36461   -5831.8368   -489.16011    1747.4598    6.8745991    12.044878    12.044878    12.044878   -491.25478 
101355000     -485.977     284.7567    1066.5817   -489.62097     1735.551    6.9217705    12.017454    12.017454    12.017454   -484.82163 
101360000   -486.63702    265.13815   -6985.3382   -490.02993    1743.8928    6.8886608    12.036677    12.036677    12.036677   -494.24023 
101365000   -486.93911    242.62186    471.52616   -490.04388     1735.783    6.9208452    12.017989    12.017989    12.017989   -486.42826 
101370000   -484.76884    305.14261   -211.48978   -488.67368    1741.5783    6.8978155    12.031349    12.031349    12.031349   -484.99873 
101375000    -485.2457     317.1932   -5740.2132   -489.30474     1750.467    6.8627892    12.051783    12.051783    12.051783    -491.5172 
101380000   -485.77111    272.23421    -7396.105   -489.25482    1751.5116    6.8586963     12.05418     12.05418     12.05418   -493.85659 
101385000   -486.35096     269.5988    1044.4377   -489.80095    1734.9974    6.9239792    12.016176    12.016176    12.016176   -485.21993 
101390000   -485.83874    258.90908   -11990.892   -489.15194    1757.8388    6.8340086    12.068678    12.068678    12.068678   -498.99463 
101395000   -485.70233    325.17782   -1418.0081   -489.86355    1740.7012    6.9012913    12.029329    12.029329    12.029329   -487.24294 
101400000   -486.46751    284.46951   -12722.535    -490.1078    1753.9444    6.8491826    12.059758    12.059758    12.059758    -500.3952 
101405000     -485.709    330.13882   -5896.2122   -489.93371    1743.8791    6.8887147    12.036645    12.036645    12.036645    -492.1267 
101410000    -485.5073    308.61004     7785.254    -489.4565     1727.323    6.9547418    11.998433    11.998433    11.998433   -477.11393 
101415000   -486.12931    265.96528    2090.5995    -489.5328      1734.12    6.9274823     12.01415     12.01415     12.01415   -483.86654 
101420000   -485.69309     300.1755   -7390.0568   -489.53436    1750.4823     6.862729    12.051818    12.051818    12.051818   -493.76721 
101425000   -485.40453    323.69766    4313.4395   -489.54681    1730.1676    6.9433076    12.005015    12.005015    12.005015   -480.74651 
101430000   -485.78955    314.71431    -7358.088   -489.81687    1749.9051    6.8649926    12.050494    12.050494    12.050494   -493.82609 
101435000   -485.83375    301.24533    1581.1968   -489.68871    1735.8922    6.9204099    12.018241    12.018241    12.018241   -484.12059 
101440000   -485.85568    299.37863    5679.0075   -489.68675    1730.0362    6.9438349    12.004712    12.004712    12.004712   -479.72346 
101445000   -485.26759    321.85324    158.01683   -489.38627     1736.505    6.9179679    12.019655    12.019655    12.019655   -485.09633 
101450000   -486.20936    274.60652    199.24389   -489.72344    1735.1937    6.9231959    12.016629    12.016629    12.016629   -485.99358 
101455000    -485.5377    285.80678   -322.42879    -489.1951    1739.1885    6.9072937    12.025844    12.025844    12.025844    -485.8877 
101460000   -485.82141    294.21748   -3759.3324   -489.58644    1740.8161    6.9008355    12.029594    12.029594    12.029594   -489.90604 
101465000   -486.27846    299.82273   -6907.4213   -490.11522     1748.062     6.872231    12.046261    12.046261    12.046261   -493.81484 
101470000   -486.26587    276.85914    2171.5894   -489.80877    1732.4664    6.9340945     12.01033     12.01033     12.01033   -483.91769 
101475000    -485.9066    277.27455   -85.538021   -489.45481    1738.4208     6.910344    12.024074    12.024074    12.024074   -485.99941 
101480000   -485.66643    306.88738    7826.4815   -489.59359    1723.1849    6.9714433    11.988844    11.988844    11.988844   -477.24883 
101485000   -485.40237    297.08308   -3354.0143   -489.20407    1746.0697    6.8800723    12.041683    12.041683    12.041683   -489.05761 
101490000   -486.51751    273.89412    5688.3029   -490.02246    1726.2295    6.9591475      11.9959      11.9959      11.9959   -480.38877 
101495000   -485.26405    331.74739    1048.3015   -489.50934    1735.5503    6.9217734    12.017452    12.017452    12.017452   -484.12848 
101500000   -485.62842     304.3644    6901.3626    -489.5233    1726.5538    6.9578402    11.996651    11.996651    11.996651    -478.1913 
101505000   -485.91564    308.47427    4762.4476   -489.86311    1730.4475    6.9421843    12.005663    12.005663    12.005663   -480.77191 
101510000   -485.88153    298.89185   -957.37051   -489.70637    1738.9515    6.9082349    12.025297    12.025297    12.025297   -486.92062 
101515000    -486.2759     282.3934   -11639.107   -489.88961    1753.3915    6.8513426    12.058491    12.058491    12.058491   -499.01351 
101520000   -486.11978    304.16862   -4482.4907   -490.01215    1743.7015    6.8894163    12.036237    12.036237    12.036237   -490.99823 
101525000   -485.35222    322.25776    2815.8868   -489.47607    1734.5202    6.9258842    12.015074    12.015074    12.015074   -482.30373 
101530000   -485.84837    323.07002   -6100.4545   -489.98262     1747.577    6.8741382    12.045147    12.045147    12.045147   -492.50245 
101535000   -486.55185     288.2528    887.04892   -490.24055    1733.6159    6.9294968    12.012986    12.012986    12.012986   -485.59203 
101540000   -485.83222    286.03603   -560.13372   -489.49256    1738.8788    6.9085238     12.02513     12.02513     12.02513   -486.44015 
101545000   -486.04557    299.27707    3712.1074   -489.87535    1732.0024    6.9359523    12.009258    12.009258    12.009258   -482.03267 
101550000   -484.94612    362.74295   -460.13186   -489.58805    1739.8259    6.9047632    12.027313    12.027313    12.027313   -485.44578 
101555000   -485.56983    298.36005    8229.9824   -489.38787    1725.8982    6.9604834    11.995133    11.995133    11.995133   -476.70432 
101560000   -485.74666    282.30752    2616.6281   -489.35928    1732.2988    6.9347653    12.009943    12.009943    12.009943   -482.91752 
101565000   -485.41696    322.14999   -1911.5363   -489.53943    1740.9107    6.9004607    12.029812    12.029812    12.029812   -487.49402 
101570000   -485.64765    326.85629    1523.7789   -489.83035    1735.4117    6.9223263    12.017132    12.017132    12.017132   -483.99716 
101575000   -485.10568    286.79652   -2424.7715   -488.77574    1743.9414    6.8884689    12.036788    12.036788    12.036788     -487.745 
101580000   -486.28719    263.64757   -6778.6132   -489.66103    1745.9267    6.8806359    12.041354    12.041354    12.041354     -493.674 
101585000   -484.86734    374.49914    8614.9429   -489.65971    1727.0436     6.955867    11.997786    11.997786    11.997786   -475.58098 
101590000   -485.47502    308.97007    8788.4421   -489.42884    1725.2363    6.9631538    11.993599    11.993599    11.993599   -476.01156 
101595000   -485.37529    287.02394   -938.96207   -489.04827    1739.2526    6.9070392    12.025991    12.025991    12.025991   -486.39459 
101600000   -486.17799    329.07213    4941.7879   -490.38905    1728.4618      6.95016    12.001069    12.001069    12.001069   -480.84669 
101605000   -486.02156    282.88337    7204.5857   -489.64154    1723.9075    6.9685212    11.990519    11.990519    11.990519   -478.26958 
101610000   -485.92448    295.51847    831.14541   -489.70615    1732.6644    6.9333023    12.010787    12.010787    12.010787   -485.02564 
101615000   -485.82491    267.55703    -4916.174   -489.24877    1746.0324    6.8802192    12.041597    12.041597    12.041597    -491.1825 
101620000   -485.57022    303.78529   -3069.0457   -489.45768    1742.7238    6.8932817    12.033986    12.033986    12.033986   -488.90849 
101625000   -486.20376    274.53977    2143.5053   -489.71698     1731.453     6.938153    12.007988    12.007988    12.007988    -483.8873 
101630000   -485.26171    318.25099    6015.8296   -489.33429    1729.0302    6.9478752    12.002384    12.002384    12.002384   -478.76957 
101635000    -485.3119    300.15947    3942.4401   -489.15296    1734.1594    6.9273251    12.014241    12.014241    12.014241   -481.04469 
101640000   -485.84458    311.13992   -2905.1341   -489.82617    1743.2084    6.8913651    12.035102    12.035102    12.035102   -489.00544 
101645000   -485.83857    306.71448   -8649.3988   -489.76352    1752.3373    6.8554644    12.056074    12.056074    12.056074   -495.29862 
101650000   -485.78667    285.17548   -1659.6632   -489.43599    1740.2863    6.9029363    12.028373    12.028373    12.028373    -487.5894 
101655000   -486.33523       281.21    9638.6299    -489.9338    1723.2966    6.9709915    11.989103    11.989103    11.989103   -475.96794 
101660000   -485.74215    289.14136    9035.3859   -489.44222    1727.4431    6.9542584    11.998711    11.998711    11.998711   -476.00033 
101665000   -485.06007    326.24913    7192.5081     -489.235    1728.2529        6.951    12.000585    12.000585    12.000585   -477.30158 
101670000   -484.95402    321.00579   -1277.6201   -489.06185    1740.4426    6.9023164    12.028734    12.028734    12.028734    -486.3419 
101675000    -485.6563    323.50596    6959.0831   -489.79613    1727.8627    6.9525696    11.999682    11.999682    11.999682    -478.1513 
101680000   -485.30902    318.44114   -3818.1349   -489.38404    1743.7703    6.8891445    12.036395    12.036395    12.036395   -489.46459 
101685000   -486.11687    300.98781   -4551.2541   -489.96854    1740.9355    6.9003624    12.029869    12.029869    12.029869   -491.06229 
101690000   -485.96694    320.55811   -1287.5454   -490.06904    1735.4614     6.922128    12.017247    12.017247    12.017247    -487.3616 
101695000   -486.19124    286.72421    4401.7083   -489.86038    1731.7862    6.9368181    12.008758    12.008758    12.008758   -481.43345 
101700000   -485.25247    309.25164    4456.2151   -489.20989    1728.9234    6.9483041    12.002137    12.002137    12.002137   -480.44373 
101705000   -485.30724    324.16549    233.95933   -489.45551    1737.1681    6.9153273    12.021185    12.021185    12.021185   -485.05357 
101710000   -485.89932    313.27116    4987.2949   -489.90817    1728.5151    6.9499456    12.001192    12.001192    12.001192   -480.51875 
101715000   -486.65978    254.85835    7609.2085   -489.92114    1725.8206    6.9607963    11.994953    11.994953    11.994953   -478.46335 
101720000   -485.31702    310.28835    6838.4236    -489.2877    1729.8591    6.9445459    12.004302    12.004302    12.004302   -477.93362 
101725000   -485.57369    302.49906   -1025.7208   -489.44469    1740.2011    6.9032745    12.028177    12.028177    12.028177   -486.68777 
101730000   -485.38379    310.63343     5262.265   -489.35889    1730.6243    6.9414754    12.006072    12.006072    12.006072   -479.69965 
101735000   -486.19626    259.74989   -2870.6309   -489.52021    1741.7832    6.8970041    12.031821    12.031821    12.031821   -489.31702 
101740000   -486.23873    311.29746    12434.151   -490.22232    1717.5634    6.9942606    11.975792    11.975792    11.975792   -472.90908 
101745000   -485.69465    278.92633    3288.1277     -489.264    1732.5566    6.9337336    12.010538    12.010538    12.010538   -482.13895 
101750000   -485.91373    317.42616   -6231.2746   -489.97575    1745.3189    6.8830319    12.039957    12.039957    12.039957   -492.70172 
101755000     -485.626    289.41945   -3666.5697   -489.32963    1742.3013    6.8949533    12.033014    12.033014    12.033014   -489.61325 
101760000   -486.49883    293.14858    9.2632887   -490.25018    1737.6545    6.9133916    12.022307    12.022307    12.022307   -486.48879 
101765000   -485.95098    308.58727    8638.0482    -489.8999    1723.9991    6.9681507    11.990732    11.990732    11.990732   -476.65613 
101770000    -486.1184    284.45014    5314.4266   -489.75844    1728.1387    6.9514591    12.000321    12.000321    12.000321   -480.38616 
101775000   -486.20571    305.25427   -2424.0687   -490.11197    1739.9882     6.904119    12.027687    12.027687    12.027687   -488.83829 
101780000   -485.58205    302.58897   -11420.187    -489.4542    1754.7753    6.8459397    12.061662    12.061662    12.061662   -498.08994 
101785000    -485.2076    259.52695   -10937.455   -488.52871    1759.4469    6.8277625    12.072357    12.072357    12.072357   -497.21869 
101790000   -486.01805    285.28277   -761.20543   -489.66875    1735.2827    6.9228407    12.016835    12.016835    12.016835    -486.8425 
101795000   -485.37917    312.04496    8025.9394   -489.37234    1724.9264    6.9644048    11.992881    11.992881    11.992881   -476.73833 
101800000   -485.43696    319.84336    7368.2143   -489.52991     1725.632    6.9615571    11.994516    11.994516    11.994516   -477.50099 
101805000   -486.34755    296.87345    10849.853   -490.14656    1718.8859    6.9888791    11.978865    11.978865    11.978865   -474.70734 
101810000   -485.46684    299.12262   -10231.451   -489.29464     1753.104     6.852466    12.057832    12.057832    12.057832   -496.66211 
101815000   -485.83467    296.75784    1099.0359   -489.63221    1736.1495    6.9193844    12.018835    12.018835    12.018835   -484.64374 
101820000   -485.76852    286.46067   -3557.1391   -489.43428    1742.0192    6.8960698    12.032364    12.032364    12.032364   -489.63613 
101825000   -485.15609    312.19534    1757.4638   -489.15118    1740.2197    6.9032005     12.02822     12.02822     12.02822    -483.2472 
101830000   -485.75961    294.49841    10167.545   -489.52824    1719.5156    6.9863199    11.980328    11.980328    11.980328   -474.84742 
101835000   -485.82111     286.4262   -2155.9917   -489.48644     1741.449    6.8983278    12.031051    12.031051    12.031051   -488.16452 
101840000   -485.80326    271.50737    5132.9545   -489.27768    1730.6987     6.941177    12.006244    12.006244    12.006244   -480.25856 
101845000   -486.40122     256.5084    3586.2167   -489.68369    1732.5202    6.9338793    12.010454    12.010454    12.010454   -482.52325 
101850000    -485.2817     315.0245   -2411.6386   -489.31299    1743.3592    6.8907693    12.035449    12.035449    12.035449   -487.90585 
101855000   -485.85104    313.57974    4008.4781   -489.86384    1732.2503    6.9349595    12.009831    12.009831    12.009831   -481.51713 
101860000   -485.97093    259.71743   -1057.4407   -489.29447     1738.747    6.9090478    12.024826    12.024826    12.024826   -487.11851 
101865000   -485.70247    338.91188   -2683.0624   -490.03944    1736.9264    6.9162894    12.020628    12.020628    12.020628   -488.61119 
101870000   -485.62915    326.46487    10184.019   -489.80684    1722.7316    6.9732776    11.987792    11.987792    11.987792   -474.67884 
101875000    -486.1753    291.67527    308.31091    -489.9078    1733.6552    6.9293397    12.013077    12.013077    12.013077   -485.84169 
101880000   -485.86367    294.02731    1705.6834   -489.62627    1736.4437    6.9182123    12.019514    12.019514    12.019514   -484.01505 
101885000   -485.58991    274.77023   -318.61037   -489.10608    1736.8793    6.9164772    12.020519    12.020519    12.020519   -485.93531 
101890000    -485.1596    368.96921    6902.9394   -489.88121    1726.6345    6.9575151    11.996838    11.996838    11.996838   -477.72044 
101895000   -484.98311    332.24858   -102.05627   -489.23481    1739.0847    6.9077061    12.025604    12.025604    12.025604   -485.09389 
101900000   -485.53189    324.16742   -1513.7577   -489.68018    1742.4575    6.8943351    12.033373    12.033373    12.033373   -487.17818 
101905000   -486.01858    302.44314   -11649.553   -489.88887    1754.2957    6.8478112    12.060564    12.060564    12.060564    -498.7742 
101910000   -486.69331    259.26676    7690.5378   -490.01108    1722.8719      6.97271    11.988118    11.988118    11.988118   -478.42342 
101915000   -485.50641    328.93162   -7096.6432   -489.71567    1749.5032      6.86657    12.049571    12.049571    12.049571   -493.25562 
101920000   -486.43107    294.94469   -3722.8134    -490.2054    1741.2691    6.8990404    12.030637    12.030637    12.030637   -490.47708 
101925000   -485.14831     334.6988   -1116.5752   -489.43137     1744.365     6.886796    12.037763    12.037763    12.037763   -486.36398 
101930000   -485.59635    301.07152    3353.9927   -489.44909    1733.3442    6.9305829    12.012358    12.012358    12.012358   -481.96777 
101935000   -485.71532    305.03579    9547.5834   -489.61879    1722.0637    6.9759821    11.986243    11.986243    11.986243   -475.45331 
101940000   -485.59274     337.9155   -2890.6878   -489.91696     1741.229    6.8991992    12.030545    12.030545    12.030545   -488.73431 
101945000   -485.44043    309.42134   -1963.6219   -489.40002    1742.9849     6.892249    12.034587    12.034587    12.034587   -487.57662 
101950000   -486.42214    264.41464   -3494.6747   -489.80579    1744.0262     6.888134    12.036983    12.036983    12.036983   -490.22622 
101955000   -485.47612    307.95026    4416.7924   -489.41688    1732.5256    6.9338577    12.010467    12.010467    12.010467   -480.69999 
101960000   -485.83563    291.75153    5630.9148    -489.5691    1728.4946    6.9500281    12.001145    12.001145    12.001145   -479.76077 
101965000   -486.37851    291.76846   -2259.5325    -490.1122    1739.8877    6.9045178    12.027455    12.027455    12.027455   -488.83225 
101970000   -486.26397     259.8478   -4041.5508   -489.58918    1743.4619    6.8903634    12.035685    12.035685    12.035685   -490.66192 
101975000   -485.46497    326.75357   -2232.1323   -489.64636    1743.1205    6.8917127      12.0349      12.0349      12.0349   -487.89346 
101980000    -486.0499    273.86815   -6967.7009   -489.55452    1748.9185    6.8688655    12.048228    12.048228    12.048228   -493.65576 
101985000   -485.75611    281.30501   -5162.2007   -489.35591    1748.5563    6.8702884    12.047396    12.047396    12.047396   -491.38995 
101990000   -485.32842    290.53504   -284.07523   -489.04632    1738.2214    6.9111366    12.023614    12.023614    12.023614   -485.63662 
101995000   -485.89124    285.05098    3431.1174   -489.53897    1731.0874    6.9396183    12.007142    12.007142    12.007142   -482.18405 
102000000   -485.73489    307.03109     4675.362   -489.66389    1731.7552    6.9369423    12.008686    12.008686    12.008686    -480.6814 
102003989   -486.56345    259.95491   -1284.7131   -489.89003     1737.148    6.9154071    12.021139    12.021139    12.021139   -487.95639 
Loop time of 345.617 on 96 procs for 1000000 steps with 100 atoms

Performance: 499.975 ns/day, 0.048 hours/ns, 2893.376 timesteps/s
99.9% CPU use with 96 MPI tasks x no OpenMP threads

MPI task timing breakdown:
Section |  min time  |  avg time  |  max time  |%varavg| %total
---------------------------------------------------------------
Pair    | 127.23     | 133.21     | 140.45     |  24.9 | 38.54
Neigh   | 0.00044203 | 0.00064505 | 0.00085831 |   0.3 |  0.00
Comm    | 122.02     | 134.62     | 152.2      |  49.8 | 38.95
Output  | 0.23687    | 0.70539    | 1.2939     |  38.6 |  0.20
Modify  | 51.554     | 64.284     | 74.095     |  58.2 | 18.60
Other   |            | 12.79      |            |       |  3.70

Nlocal:    1.04167 ave 2 max 0 min
Histogram: 14 0 0 0 0 64 0 0 0 18
Nghost:    423.823 ave 443 max 402 min
Histogram: 3 5 8 10 12 18 18 11 9 2
Neighs:    77.6354 ave 207 max 0 min
Histogram: 14 3 13 24 24 6 3 1 5 3

Total # of neighbors = 7453
Ave neighs/atom = 74.53
Neighbor list builds = 64
Dangerous builds = 0
System init for write_restart ...
Total wall time: 9:29:11
