14
Lattice=" 12.071240   0.000000   0.000000    0.000000  12.071240   0.000000    0.000000   0.000000  12.071240" Properties=species:S:1:pos:R:3 pbc="T T T" ID_RUN=3 SUB_STEP=0 ID_CENTRAL_ATOM=16 SUM_ICOHP=18.431970
Al   3.012209   6.653016   3.843169
Zr   0.857814   6.999509   1.610014
Zr   0.761832   4.727001   4.390962
Cu   2.732084   3.063826   4.485468
Zr   3.040987   4.427864   2.077110
Cu   3.514867   7.152837   1.325579
Zr   5.297802   4.839602   3.989943
Zr   1.642872   8.005622   6.020483
Cu   0.119415   7.298501   4.081564
Cu   3.806352   9.436233   5.477386
Cu   4.805730   7.335801   5.608165
Zr   5.490881   7.953595   2.869153
Zr   2.321444   9.319299   2.965228
Zr   2.925127   5.212724   6.229979
14
Lattice=" 12.071240   0.000000   0.000000    0.000000  12.071240   0.000000    0.000000   0.000000  12.071240" Properties=species:S:1:pos:R:3 pbc="T T T" ID_RUN=3 SUB_STEP=0 ID_CENTRAL_ATOM=100 SUM_ICOHP=18.229310
Al  10.358959  11.535072   9.686241
Cu   9.335209   8.548031   8.495002
Zr   9.018122  10.639325   7.078841
Cu   7.826461  12.425099   9.246582
Zr  11.945723  10.537927   7.347148
Cu  10.098968  13.038601   7.783246
Cu  13.283712  11.166030   9.939628
Zr  12.527224  13.573602   8.738503
Zr   8.274304   9.807617  10.541174
Zr  11.672974   9.125025  10.426521
Cu   9.999417  10.227274  12.628378
Cu  10.045626  13.980005  10.112995
Cu   9.063618  12.340749  11.691841
Zr  11.845313  12.383297  11.878148
12
Lattice=" 12.071240   6.035620   0.000000    0.000000  12.071240   0.000000    0.000000   0.000000  12.071240" Properties=species:S:1:pos:R:3 pbc="T T T" ID_RUN=3 SUB_STEP=1 ID_CENTRAL_ATOM=16 SUM_ICOHP=18.758380
Al   3.012209   8.159120   3.843169
Zr   0.857814   7.428415   1.610014
Zr   3.040987   5.948357   2.077110
Cu   3.514867   8.910271   1.325579
Zr   5.297802   7.488502   3.989943
Zr   1.642872   8.827058   6.020483
Cu   0.119415   7.358209   4.081564
Cu   3.806352  11.339409   5.477386
Cu   4.805730   9.738666   5.608165
Zr   5.490881  10.699036   2.869153
Zr   2.321444  10.480021   2.965228
Zr   2.925127   6.675287   6.229979
16
Lattice=" 12.071240   6.035620   0.000000    0.000000  12.071240   0.000000    0.000000   0.000000  12.071240" Properties=species:S:1:pos:R:3 pbc="T T T" ID_RUN=3 SUB_STEP=1 ID_CENTRAL_ATOM=100 SUM_ICOHP=19.524390
Al  10.358959  16.714551   9.686241
Zr   9.018122  15.148386   7.078841
Zr  11.945723  16.510789   7.347148
Cu  11.519657  13.592313   8.027966
Cu  13.283712  17.807886   9.939628
Cu  13.858737  16.052619   8.587830
Zr   8.164371  19.227512   8.431725
Cu   7.826461  16.338329   9.246582
Cu  10.098968  18.088086   7.783246
Cu   9.999417  15.226982  12.628378
Zr   8.274304  13.944769  10.541174
Zr  11.672974  14.961511  10.426521
Cu  10.045626  19.002818  10.112995
Cu   9.063618  16.872558  11.691841
Zr   7.372136  18.260702  11.253136
Zr  11.845313  18.305954  11.878148
15
Lattice=" 12.071240   0.000000   6.035620    0.000000  12.071240   0.000000    0.000000   0.000000  12.071240" Properties=species:S:1:pos:R:3 pbc="T T T" ID_RUN=3 SUB_STEP=2 ID_CENTRAL_ATOM=16 SUM_ICOHP=19.117380
Al   3.012209   6.653016   5.349273
Zr   0.761832   4.727001   4.771878
Cu   2.732084   3.063826   5.851509
Zr   3.040987   4.427864   3.597604
Zr   5.297802   4.839602   6.638844
Zr   5.618957   5.529521   3.021816
Zr   1.642872   8.005622   6.841918
Cu   0.119415   7.298501   4.141271
Cu   3.806352   9.436233   7.380561
Cu   4.805730   7.335801   8.011030
Zr   5.490881   7.953595   5.614593
Cu   3.514867   7.152837   3.083013
Zr   2.321444   9.319299   4.125950
Cu  -0.299331   5.740683   6.422618
Zr   2.925127   5.212724   7.692543
14
Lattice=" 12.071240   0.000000   6.035620    0.000000  12.071240   0.000000    0.000000   0.000000  12.071240" Properties=species:S:1:pos:R:3 pbc="T T T" ID_RUN=3 SUB_STEP=2 ID_CENTRAL_ATOM=100 SUM_ICOHP=19.306020
Al  10.358959  11.535072  14.865720
Cu   9.335209   8.548031  13.162607
Zr   8.274304   9.807617  14.678326
Zr  11.672974   9.125025  16.263008
Cu  10.045626  13.980005  15.135808
Zr   9.018122  10.639325  11.587902
Cu   9.063618  12.340749  16.223650
Cu   7.826461  12.425099  13.159812
Zr  11.945723  10.537927  13.320010
Cu  10.098968  13.038601  12.832730
Cu  13.283712  11.166030  16.581484
Zr  11.845313  12.383297  17.800805
Zr  12.527224  13.573602  15.002115
Cu   9.999417  10.227274  17.628087
11
Lattice=" 12.071240   0.000000   0.000000    6.035620  12.071240   0.000000    0.000000   0.000000  12.071240" Properties=species:S:1:pos:R:3 pbc="T T T" ID_RUN=3 SUB_STEP=3 ID_CENTRAL_ATOM=16 SUM_ICOHP=18.715520
Al   6.338717   6.653016   3.843169
Zr   4.357568   6.999509   1.610014
Zr   5.254919   4.427864   2.077110
Cu   7.091286   7.152837   1.325579
Zr   7.717602   4.839602   3.989943
Cu   8.473630   7.335801   5.608165
Zr   9.467679   7.953595   2.869153
Zr   6.981094   9.319299   2.965228
Zr   5.645683   8.005622   6.020483
Cu   3.768666   7.298501   4.081564
Zr   5.531489   5.212724   6.229979
14
Lattice=" 12.071240   0.000000   0.000000    6.035620  12.071240   0.000000    0.000000   0.000000  12.071240" Properties=species:S:1:pos:R:3 pbc="T T T" ID_RUN=3 SUB_STEP=3 ID_CENTRAL_ATOM=100 SUM_ICOHP=17.868810
Al  16.126495  11.535072   9.686241
Cu  18.420362   9.123250   8.587830
Zr  17.214687  10.537927   7.347148
Cu  16.618269  13.038601   7.783246
Zr  14.337784  10.639325   7.078841
Cu  14.039010  12.425099   9.246582
Cu  18.866726  11.166030   9.939628
Zr  16.235486   9.125025  10.426521
Zr  13.178112   9.807617  10.541174
Cu  15.113054  10.227274  12.628378
Cu  17.035628  13.980005  10.112995
Cu  15.233992  12.340749  11.691841
Zr  18.036962  12.383297  11.878148
Zr  14.659453  14.574634  11.253136
13
Lattice=" 12.071240   0.000000   0.000000    0.000000  12.071240   6.035620    0.000000   0.000000  12.071240" Properties=species:S:1:pos:R:3 pbc="T T T" ID_RUN=3 SUB_STEP=4 ID_CENTRAL_ATOM=16 SUM_ICOHP=19.883950
Al   3.012209   6.653016   7.169677
Zr   0.857814   6.999509   5.109768
Zr   0.761832   4.727001   6.754462
Zr   3.040987   4.427864   4.291042
Zr   5.297802   4.839602   6.409744
Zr   1.642872   8.005622  10.023294
Cu   0.119415   7.298501   7.730814
Cu   4.357838   9.802342   5.701938
Cu   4.805730   7.335801   9.276066
Zr   5.490881   7.953595   6.845950
Cu   3.514867   7.152837   4.901998
Zr   2.321444   9.319299   7.624877
Zr   2.925127   5.212724   8.836341
14
Lattice=" 12.071240   0.000000   0.000000    0.000000  12.071240   6.035620    0.000000   0.000000  12.071240" Properties=species:S:1:pos:R:3 pbc="T T T" ID_RUN=3 SUB_STEP=4 ID_CENTRAL_ATOM=100 SUM_ICOHP=18.497460
Al  10.358959  11.535072  15.453776
Zr   8.274304   9.807617  15.444983
Zr  11.672974   9.125025  14.989034
Cu  10.045626  13.980005  17.102998
Zr   9.018122  10.639325  12.398503
Cu   9.063618  12.340749  17.862215
Cu   7.826461  12.425099  15.459131
Zr  11.945723  10.537927  12.616112
Cu  10.098968  13.038601  14.302547
Cu  13.283712  11.166030  15.522643
Zr  11.845313  12.383297  18.069797
Zr  12.527224  13.573602  15.525305
Cu  12.620213   9.706895  17.810650
Cu   9.999417  10.227274  17.742015
14
Lattice=" 12.071240   0.000000   0.000000    0.000000  12.071240   0.000000    6.035620   0.000000  12.071240" Properties=species:S:1:pos:R:3 pbc="T T T" ID_RUN=3 SUB_STEP=5 ID_CENTRAL_ATOM=16 SUM_ICOHP=18.353010
Al   4.933793   6.653016   3.843169
Cu   4.974818   3.063826   4.485468
Zr   2.957313   4.727001   4.390962
Zr   4.079542   4.427864   2.077110
Cu   4.177657   7.152837   1.325579
Zr   7.292773   4.839602   3.989943
Cu   6.545044   9.436233   5.477386
Cu   7.609812   7.335801   5.608165
Zr   6.925457   7.953595   2.869153
Zr   3.804058   9.319299   2.965228
Zr   4.653113   8.005622   6.020483
Cu   2.160197   7.298501   4.081564
Cu   2.986811   5.740683   6.572283
Zr   6.040117   5.212724   6.229979
13
Lattice=" 12.071240   0.000000   0.000000    0.000000  12.071240   0.000000    6.035620   0.000000  12.071240" Properties=species:S:1:pos:R:3 pbc="T T T" ID_RUN=3 SUB_STEP=5 ID_CENTRAL_ATOM=100 SUM_ICOHP=17.935660
Al  15.202079  11.535072   9.686241
Cu  13.582710   8.548031   8.495002
Zr  15.619297  10.537927   7.347148
Cu  13.990591  13.038601   7.783246
Cu  12.449752  12.425099   9.246582
Cu  18.253526  11.166030   9.939628
Zr  16.896476  13.573602   8.738503
Zr  16.886234   9.125025  10.426521
Zr  13.544891   9.807617  10.541174
Cu  16.313606  10.227274  12.628378
Cu  15.102123  13.980005  10.112995
Cu  14.909539  12.340749  11.691841
Zr  17.784388  12.383297  11.878148
14
Lattice=" 12.071240   0.000000   0.000000    0.000000  12.071240   0.000000    0.000000   6.035620  12.071240" Properties=species:S:1:pos:R:3 pbc="T T T" ID_RUN=3 SUB_STEP=6 ID_CENTRAL_ATOM=16 SUM_ICOHP=19.807730
Al   3.012209   8.574600   3.843169
Zr   0.857814   7.804515   1.610014
Zr   0.761832   6.922482   4.390962
Cu   2.732084   5.306559   4.485468
Zr   3.040987   5.466419   2.077110
Cu   4.357838  10.202726   0.800767
Cu   3.514867   7.815627   1.325579
Zr   5.297802   6.834573   3.989943
Zr   1.642872  11.015864   6.020483
Cu   0.119415   9.339283   4.081564
Cu   4.805730  10.139884   5.608165
Zr   5.490881   9.388172   2.869153
Zr   2.321444  10.801913   2.965228
Zr   2.925127   8.327713   6.229979
15
Lattice=" 12.071240   0.000000   0.000000    0.000000  12.071240   0.000000    0.000000   6.035620  12.071240" Properties=species:S:1:pos:R:3 pbc="T T T" ID_RUN=3 SUB_STEP=6 ID_CENTRAL_ATOM=100 SUM_ICOHP=19.123480
Al  10.358959  16.378192   9.686241
Zr   9.018122  14.178746   7.078841
Zr  11.945723  14.211501   7.347148
Cu  13.283712  16.135844   9.939628
Cu   7.826461  17.048390   9.246582
Cu  10.821323  18.724642   6.974593
Cu  10.098968  16.930224   7.783246
Zr  12.527224  17.942854   8.738503
Cu   9.999417  16.541463  12.628378
Zr   8.274304  15.078204  10.541174
Zr  11.672974  14.338285  10.426521
Cu  10.716195  14.114021  12.459622
Cu  10.045626  19.036502  10.112995
Cu   9.063618  18.186669  11.691841
Zr  11.845313  18.322371  11.878148
14
Lattice=" 12.312665   0.000000   0.000000    0.000000  12.071240   0.000000    0.000000   0.000000  12.071240" Properties=species:S:1:pos:R:3 pbc="T T T" ID_RUN=3 SUB_STEP=7 ID_CENTRAL_ATOM=16 SUM_ICOHP=17.943580
Al   3.072453   6.653016   3.843169
Zr   0.874970   6.999509   1.610014
Zr   0.777068   4.727001   4.390962
Cu   2.786725   3.063826   4.485468
Zr   3.101807   4.427864   2.077110
Cu   3.585165   7.152837   1.325579
Zr   5.403758   4.839602   3.989943
Zr   1.675729   8.005622   6.020483
Cu   0.121803   7.298501   4.081564
Cu   3.882479   9.436233   5.477386
Cu   4.901844   7.335801   5.608165
Zr   5.600699   7.953595   2.869153
Zr   2.367873   9.319299   2.965228
Zr   2.983630   5.212724   6.229979
14
Lattice=" 12.312665   0.000000   0.000000    0.000000  12.071240   0.000000    0.000000   0.000000  12.071240" Properties=species:S:1:pos:R:3 pbc="T T T" ID_RUN=3 SUB_STEP=7 ID_CENTRAL_ATOM=100 SUM_ICOHP=17.767590
Al  10.566138  11.535072   9.686241
Cu   9.521913   8.548031   8.495002
Zr   9.198484  10.639325   7.078841
Cu   7.982990  12.425099   9.246582
Zr  12.184638  10.537927   7.347148
Cu  10.300948  13.038601   7.783246
Cu  13.549386  11.166030   9.939628
Zr  12.777769  13.573602   8.738503
Zr   8.439790   9.807617  10.541174
Zr  11.906433   9.125025  10.426521
Cu  10.199405  10.227274  12.628378
Cu  10.246538  13.980005  10.112995
Cu   9.244890  12.340749  11.691841
Zr  12.082220  12.383297  11.878148
15
Lattice="  9.656992   0.000000   0.000000    0.000000  12.071240   0.000000    0.000000   0.000000  12.071240" Properties=species:S:1:pos:R:3 pbc="T T T" ID_RUN=3 SUB_STEP=8 ID_CENTRAL_ATOM=16 SUM_ICOHP=24.381350
Al   2.409767   6.653016   3.843169
Zr   0.686251   6.999509   1.610014
Cu   2.185667   3.063826   4.485468
Zr   0.609465   4.727001   4.390962
Zr   2.432789   4.427864   2.077110
Cu   2.811894   7.152837   1.325579
Zr   4.238241   4.839602   3.989943
Cu   5.716283   6.008327   2.466987
Cu   3.045081   9.436233   5.477386
Cu   3.844584   7.335801   5.608165
Zr   4.392705   7.953595   2.869153
Zr   1.857155   9.319299   2.965228
Zr   1.314297   8.005622   6.020483
Cu   0.095532   7.298501   4.081564
Zr   2.340102   5.212724   6.229979
14
Lattice="  9.656992   0.000000   0.000000    0.000000  12.071240   0.000000    0.000000   0.000000  12.071240" Properties=species:S:1:pos:R:3 pbc="T T T" ID_RUN=3 SUB_STEP=8 ID_CENTRAL_ATOM=100 SUM_ICOHP=23.369180
Al   8.287167  11.535072   9.686241
Cu   7.468167   8.548031   8.495002
Zr   9.556579  10.537927   7.347148
Cu   8.079175  13.038601   7.783246
Zr   7.214497  10.639325   7.078841
Cu   6.261169  12.425099   9.246582
Cu  10.626969  11.166030   9.939628
Zr  10.021779  13.573602   8.738503
Zr   9.338379   9.125025  10.426521
Zr   6.619443   9.807617  10.541174
Cu   7.999533  10.227274  12.628378
Cu   8.036500  13.980005  10.112995
Cu   7.250895  12.340749  11.691841
Zr   9.476251  12.383297  11.878148
14
Lattice=" 12.071240   0.000000   0.000000    0.000000  12.312665   0.000000    0.000000   0.000000  12.071240" Properties=species:S:1:pos:R:3 pbc="T T T" ID_RUN=3 SUB_STEP=9 ID_CENTRAL_ATOM=16 SUM_ICOHP=17.924220
Al   3.012209   6.786076   3.843169
Zr   0.857814   7.139499   1.610014
Zr   0.761832   4.821541   4.390962
Cu   2.732084   3.125102   4.485468
Zr   3.040987   4.516421   2.077110
Cu   3.514867   7.295894   1.325579
Zr   5.297802   4.936394   3.989943
Zr   1.642872   8.165735   6.020483
Cu   0.119415   7.444471   4.081564
Cu   3.806352   9.624958   5.477386
Cu   4.805730   7.482517   5.608165
Zr   5.490881   8.112667   2.869153
Zr   2.321444   9.505685   2.965228
Zr   2.925127   5.316978   6.229979
14
Lattice=" 12.071240   0.000000   0.000000    0.000000  12.312665   0.000000    0.000000   0.000000  12.071240" Properties=species:S:1:pos:R:3 pbc="T T T" ID_RUN=3 SUB_STEP=9 ID_CENTRAL_ATOM=100 SUM_ICOHP=17.757010
Al  10.358959  11.765773   9.686241
Cu   9.335209   8.718992   8.495002
Zr   9.018122  10.852112   7.078841
Cu   7.826461  12.673601   9.246582
Zr  11.945723  10.748685   7.347148
Cu  10.098968  13.299374   7.783246
Cu  13.283712  11.389350   9.939628
Zr  12.527224  13.845075   8.738503
Zr   8.274304  10.003769  10.541174
Zr  11.672974   9.307525  10.426521
Cu   9.999417  10.431819  12.628378
Cu  10.045626  14.259605  10.112995
Cu   9.063618  12.587564  11.691841
Zr  11.845313  12.630963  11.878148
15
Lattice=" 12.071240   0.000000   0.000000    0.000000   9.656992   0.000000    0.000000   0.000000  12.071240" Properties=species:S:1:pos:R:3 pbc="T T T" ID_RUN=3 SUB_STEP=10 ID_CENTRAL_ATOM=16 SUM_ICOHP=25.116410
Al   3.012209   5.322413   3.843169
Zr   0.857814   5.599607   1.610014
Zr   0.761832   3.781601   4.390962
Cu   2.732084   2.451060   4.485468
Zr   3.040987   3.542291   2.077110
Cu   3.514867   5.722270   1.325579
Zr   5.297802   3.871681   3.989943
Cu   1.499707   8.467550   5.167517
Zr   1.642872   6.404498   6.020483
Cu   0.119415   5.838801   4.081564
Cu   3.806352   7.548987   5.477386
Cu   4.805730   5.868641   5.608165
Zr   5.490881   6.362876   2.869153
Zr   2.321444   7.455439   2.965228
Zr   2.925127   4.170179   6.229979
15
Lattice=" 12.071240   0.000000   0.000000    0.000000   9.656992   0.000000    0.000000   0.000000  12.071240" Properties=species:S:1:pos:R:3 pbc="T T T" ID_RUN=3 SUB_STEP=10 ID_CENTRAL_ATOM=100 SUM_ICOHP=24.411660
Al  10.358959   9.228057   9.686241
Cu   9.335209   6.838425   8.495002
Zr   9.018122   8.511460   7.078841
Zr  11.945723   8.430342   7.347148
Cu  11.519657   6.265988   8.027966
Cu  13.283712   8.932824   9.939628
Cu   7.826461   9.940079   9.246582
Cu  10.098968  10.430881   7.783246
Zr  12.527224  10.858882   8.738503
Cu   9.999417   8.181819  12.628378
Zr   8.274304   7.846094  10.541174
Zr  11.672974   7.300020  10.426521
Cu  10.045626  11.184004  10.112995
Cu   9.063618   9.872599  11.691841
Zr  11.845313   9.906638  11.878148
14
Lattice=" 12.071240   0.000000   0.000000    0.000000  12.071240   0.000000    0.000000   0.000000  12.312665" Properties=species:S:1:pos:R:3 pbc="T T T" ID_RUN=3 SUB_STEP=11 ID_CENTRAL_ATOM=16 SUM_ICOHP=17.916720
Al   3.012209   6.653016   3.920032
Zr   0.857814   6.999509   1.642214
Zr   0.761832   4.727001   4.478781
Cu   2.732084   3.063826   4.575177
Zr   3.040987   4.427864   2.118653
Cu   3.514867   7.152837   1.352091
Zr   5.297802   4.839602   4.069742
Zr   1.642872   8.005622   6.140892
Cu   0.119415   7.298501   4.163195
Cu   3.806352   9.436233   5.586933
Cu   4.805730   7.335801   5.720329
Zr   5.490881   7.953595   2.926536
Zr   2.321444   9.319299   3.024532
Zr   2.925127   5.212724   6.354579
14
Lattice=" 12.071240   0.000000   0.000000    0.000000  12.071240   0.000000    0.000000   0.000000  12.312665" Properties=species:S:1:pos:R:3 pbc="T T T" ID_RUN=3 SUB_STEP=11 ID_CENTRAL_ATOM=100 SUM_ICOHP=17.688710
Al  10.358959  11.535072   9.879965
Cu   9.335209   8.548031   8.664902
Zr   9.018122  10.639325   7.220418
Cu   7.826461  12.425099   9.431514
Zr  11.945723  10.537927   7.494091
Cu  10.098968  13.038601   7.938911
Cu  13.283712  11.166030  10.138421
Zr  12.527224  13.573602   8.913273
Zr   8.274304   9.807617  10.751998
Zr  11.672974   9.125025  10.635052
Cu   9.999417  10.227274  12.880946
Cu  10.045626  13.980005  10.315255
Cu   9.063618  12.340749  11.925678
Zr  11.845313  12.383297  12.115711
15
Lattice=" 12.071240   0.000000   0.000000    0.000000  12.071240   0.000000    0.000000   0.000000   9.656992" Properties=species:S:1:pos:R:3 pbc="T T T" ID_RUN=3 SUB_STEP=12 ID_CENTRAL_ATOM=16 SUM_ICOHP=24.672220
Al   3.012209   6.653016   3.074535
Cu   2.793357   5.479015  -0.396091
Zr   0.857814   6.999509   1.288011
Zr   0.761832   4.727001   3.512769
Cu   2.732084   3.063826   3.588374
Zr   3.040987   4.427864   1.661688
Zr   5.297802   4.839602   3.191955
Zr   1.642872   8.005622   4.816386
Cu   0.119415   7.298501   3.265251
Cu   3.806352   9.436233   4.381908
Cu   4.805730   7.335801   4.486532
Zr   5.490881   7.953595   2.295322
Cu   3.514867   7.152837   1.060463
Zr   2.321444   9.319299   2.372182
Zr   2.925127   5.212724   4.983983
14
Lattice=" 12.071240   0.000000   0.000000    0.000000  12.071240   0.000000    0.000000   0.000000   9.656992" Properties=species:S:1:pos:R:3 pbc="T T T" ID_RUN=3 SUB_STEP=12 ID_CENTRAL_ATOM=100 SUM_ICOHP=24.907380
Al  10.358959  11.535072   7.748992
Cu   9.335209   8.548031   6.796002
Zr   8.274304   9.807617   8.432939
Zr  11.672974   9.125025   8.341217
Cu  10.045626  13.980005   8.090396
Zr   9.018122  10.639325   5.663073
Cu   9.063618  12.340749   9.353473
Cu   7.826461  12.425099   7.397266
Zr  11.945723  10.537927   5.877719
Cu  10.098968  13.038601   6.226597
Cu  13.283712  11.166030   7.951702
Zr  11.845313  12.383297   9.502519
Zr  12.527224  13.573602   6.990803
Cu   9.999417  10.227274  10.102703
14
Lattice=" 12.191952   0.000000   0.000000    0.000000  12.191952   0.000000    0.000000   0.000000  12.191952" Properties=species:S:1:pos:R:3 pbc="T T T" ID_RUN=3 SUB_STEP=13 ID_CENTRAL_ATOM=16 SUM_ICOHP=17.671060
Al   3.042331   6.719546   3.881601
Zr   0.866392   7.069504   1.626114
Zr   0.769450   4.774271   4.434871
Cu   2.759405   3.094464   4.530322
Zr   3.071397   4.472142   2.097881
Cu   3.550016   7.224366   1.338835
Zr   5.350780   4.887998   4.029843
Zr   1.659300   8.085678   6.080687
Cu   0.120609   7.371486   4.122380
Cu   3.844415   9.530595   5.532159
Cu   4.853787   7.409159   5.664247
Zr   5.545790   8.033131   2.897844
Zr   2.344659   9.412492   2.994880
Zr   2.954378   5.264851   6.292279
14
Lattice=" 12.191952   0.000000   0.000000    0.000000  12.191952   0.000000    0.000000   0.000000  12.191952" Properties=species:S:1:pos:R:3 pbc="T T T" ID_RUN=3 SUB_STEP=13 ID_CENTRAL_ATOM=100 SUM_ICOHP=17.480440
Al  10.462548  11.650422   9.783103
Cu   9.428561   8.633512   8.579952
Zr   9.108303  10.745719   7.149629
Cu   7.904725  12.549349   9.339048
Zr  12.065180  10.643306   7.420620
Cu  10.199958  13.168987   7.861078
Cu  13.416548  11.277690  10.039024
Zr  12.652496  13.709338   8.825888
Zr   8.357047   9.905693  10.646586
Zr  11.789703   9.216275  10.530787
Cu  10.099411  10.329546  12.754662
Cu  10.146082  14.119804  10.214125
Cu   9.154254  12.464156  11.808759
Zr  11.963766  12.507130  11.996930
14
Lattice=" 10.864116   0.000000   0.000000    0.000000  10.864116   0.000000    0.000000   0.000000  10.864116" Properties=species:S:1:pos:R:3 pbc="T T T" ID_RUN=3 SUB_STEP=14 ID_CENTRAL_ATOM=16 SUM_ICOHP=28.076300
Al   2.710988   5.987714   3.458852
Zr   0.772032   6.299558   1.449012
Cu   2.458875   2.757443   4.036921
Zr   0.685648   4.254301   3.951866
Zr   2.736888   3.985077   1.869399
Zr   4.768022   4.355641   3.590949
Cu   3.425717   8.492610   4.929647
Cu   4.325157   6.602221   5.047349
Zr   4.941793   7.158236   2.582237
Cu   3.163381   6.437554   1.193021
Zr   2.089300   8.387369   2.668705
Zr   1.478584   7.205060   5.418434
Cu   0.107474   6.568651   3.673407
Zr   2.632614   4.691451   5.606981
14
Lattice=" 10.864116   0.000000   0.000000    0.000000  10.864116   0.000000    0.000000   0.000000  10.864116" Properties=species:S:1:pos:R:3 pbc="T T T" ID_RUN=3 SUB_STEP=14 ID_CENTRAL_ATOM=100 SUM_ICOHP=27.757020
Al   9.323063  10.381565   8.717617
Zr  10.751151   9.484134   6.612433
Zr  10.505676   8.212522   9.383869
Cu   8.401688   7.693228   7.645502
Zr   7.446873   8.826855   9.487057
Zr   8.116309   9.575393   6.370957
Cu  11.955340  10.049427   8.945665
Cu   9.041063  12.582004   9.101696
Cu   9.089072  11.734741   7.004921
Cu   8.157256  11.106674  10.522657
Cu   7.043815  11.182589   8.321924
Zr  10.660782  11.144968  10.690334
Zr  11.274501  12.216242   7.864653
Cu   8.999475   9.204546  11.365541
12
Lattice=" 12.064180   0.000000   0.000000    0.000000  12.064180   0.000000    0.000000   0.000000  12.064180" Properties=species:S:1:pos:R:3 pbc="T T T" ID_RUN=1 SUB_STEP=0 ID_CENTRAL_ATOM=21 SUM_ICOHP=17.516300
Al   2.513487   9.866472   7.985365
Zr   0.118019   8.358872   9.506127
Zr   2.183158   6.916117   7.482217
Zr   2.460984   9.348123   4.821232
Zr  -0.111775   9.353214   6.639027
Cu   2.915032   8.260899   9.856580
Zr   5.265520   8.979104   8.645167
Zr   0.402970  11.469874   9.065145
Cu   4.551803  10.560959   6.633755
Cu   3.808903  12.463993   8.732005
Zr   2.041440  12.080829   6.457992
Zr   3.163144  10.622100  10.776546
13
Lattice=" 12.064180   0.000000   0.000000    0.000000  12.064180   0.000000    0.000000   0.000000  12.064180" Properties=species:S:1:pos:R:3 pbc="T T T" ID_RUN=1 SUB_STEP=0 ID_CENTRAL_ATOM=91 SUM_ICOHP=16.835760
Al  10.501845   7.403510   4.624031
Zr  11.952405   9.353214   6.639027
Zr   9.124260   5.521703   6.443527
Zr  11.462117   6.482446   1.900277
Cu   9.230678   8.276679   2.206442
Cu   8.018132   7.794329   4.478151
Zr  12.059647   9.336855   2.872216
Cu  12.835173   7.053552   5.010411
Cu   9.069452   5.687067   3.120267
Cu  11.056170   4.929339   4.411762
Zr   9.419796  10.327083   4.332621
Cu   9.294329   8.451875   6.678018
Cu  11.497827   6.581058   7.084533
13
Lattice=" 12.064180   6.032090   0.000000    0.000000  12.064180   0.000000    0.000000   0.000000  12.064180" Properties=species:S:1:pos:R:3 pbc="T T T" ID_RUN=1 SUB_STEP=1 ID_CENTRAL_ATOM=21 SUM_ICOHP=17.151020
Al   2.513487  11.123216   7.985365
Zr   2.183158   8.007696   7.482217
Zr   2.460984  10.578615   4.821232
Zr   0.402970  11.671359   9.065145
Zr  -0.111775   9.297326   6.639027
Cu   4.551803  12.836861   6.633755
Cu   2.915032   9.718415   9.856580
Zr   5.265520  11.611864   8.645167
Cu   4.830655   9.306978   6.778247
Cu  -0.919568  12.074467   6.817203
Cu   3.808903  14.368444   8.732005
Zr   2.041440  13.101549   6.457992
Zr   3.163144  12.203672  10.776546
15
Lattice=" 12.064180   6.032090   0.000000    0.000000  12.064180   0.000000    0.000000   0.000000  12.064180" Properties=species:S:1:pos:R:3 pbc="T T T" ID_RUN=1 SUB_STEP=1 ID_CENTRAL_ATOM=91 SUM_ICOHP=17.701510
Al  10.501845  12.654432   4.624031
Zr  11.952405  15.329416   6.639027
Zr   9.124260  10.083833   6.443527
Zr  13.322426  11.098008   6.410893
Zr  11.462117  12.213504   1.900277
Cu   9.230678  12.892018   2.206442
Cu   8.018132  11.803395   4.478151
Zr  12.059647  15.366679   2.872216
Cu  12.835173  13.471138   5.010411
Cu   9.069452  10.221793   3.120267
Cu  11.056170  10.457424   4.411762
Zr  13.540148  11.439249   3.466099
Zr   9.419796  15.036981   4.332621
Cu   9.294329  13.099039   6.678018
Cu  11.497827  12.329972   7.084533
13
Lattice=" 12.064180   0.000000   6.032090    0.000000  12.064180   0.000000    0.000000   0.000000  12.064180" Properties=species:S:1:pos:R:3 pbc="T T T" ID_RUN=1 SUB_STEP=2 ID_CENTRAL_ATOM=21 SUM_ICOHP=16.688940
Al   2.513487   9.866472   9.242109
Zr   0.118019   8.358872   9.565137
Zr   2.183158   6.916117   8.573796
Zr   2.460984   9.348123   6.051724
Zr   5.486391   8.483966   7.627101
Cu   2.915032   8.260899  11.314096
Zr   5.265520   8.979104  11.277927
Zr   0.316289  10.892555  12.075081
Zr   0.402970  11.469874   9.266631
Zr   3.163144  10.622100  12.358118
Cu   4.551803  10.560959   8.909656
Cu   3.808903  12.463993  10.636457
Zr   2.041440  12.080829   7.478712
15
Lattice=" 12.064180   0.000000   6.032090    0.000000  12.064180   0.000000    0.000000   0.000000  12.064180" Properties=species:S:1:pos:R:3 pbc="T T T" ID_RUN=1 SUB_STEP=2 ID_CENTRAL_ATOM=91 SUM_ICOHP=18.355570
Al  10.501845   7.403510   9.874954
Cu   7.141789   7.584545  10.640359
Zr  11.952405   9.353214  12.615229
Zr   9.124260   5.521703  11.005657
Cu   9.230678   8.276679   6.821781
Cu   8.018132   7.794329   8.487217
Zr  11.462117   6.482446   7.631336
Zr  12.059647   9.336855   8.902040
Cu  12.835173   7.053552  11.427997
Cu  13.985654   7.459512   9.837814
Cu   9.069452   5.687067   7.654994
Cu  11.056170   4.929339   9.939847
Zr   9.419796  10.327083   9.042519
Cu   9.294329   8.451875  11.325183
Cu  11.497827   6.581058  12.833446
13
Lattice=" 12.064180   0.000000   0.000000    6.032090  12.064180   0.000000    0.000000   0.000000  12.064180" Properties=species:S:1:pos:R:3 pbc="T T T" ID_RUN=1 SUB_STEP=3 ID_CENTRAL_ATOM=21 SUM_ICOHP=17.794870
Al   7.446724   9.866472   7.985365
Zr   5.641217   6.916117   7.482217
Zr   7.135046   9.348123   4.821232
Zr   4.564832   9.353214   6.639027
Cu   7.045481   8.260899   9.856580
Zr   9.755072   8.979104   8.645167
Cu   8.276480   6.891651   6.778247
Cu   5.347558  12.534251   6.817203
Cu   9.832283  10.560959   6.633755
Cu  10.040899  12.463993   8.732005
Zr   6.137907  11.469874   9.065145
Zr   8.081855  12.080829   6.457992
Zr   8.474194  10.622100  10.776546
15
Lattice=" 12.064180   0.000000   0.000000    6.032090  12.064180   0.000000    0.000000   0.000000  12.064180" Properties=species:S:1:pos:R:3 pbc="T T T" ID_RUN=1 SUB_STEP=3 ID_CENTRAL_ATOM=91 SUM_ICOHP=17.191270
Al  14.203599   7.403510   4.624031
Zr  16.629012   9.353214   6.639027
Zr  11.885111   5.521703   6.443527
Zr  15.540823   4.436795   6.410893
Zr  14.703340   6.482446   1.900277
Cu  13.369018   8.276679   2.206442
Cu  11.915296   7.794329   4.478151
Zr  16.728075   9.336855   2.872216
Cu  16.361949   7.053552   5.010411
Cu  13.520839   4.929339   4.411762
Cu  11.912986   5.687067   3.120267
Zr  15.874736   4.669175   3.466099
Zr  14.583338  10.327083   4.332621
Cu  14.788356   6.581058   7.084533
Cu  13.520266   8.451875   6.678018
13
Lattice=" 12.064180   0.000000   0.000000    0.000000  12.064180   6.032090    0.000000   0.000000  12.064180" Properties=species:S:1:pos:R:3 pbc="T T T" ID_RUN=1 SUB_STEP=4 ID_CENTRAL_ATOM=21 SUM_ICOHP=19.588030
Al   2.513487   9.866472  12.918601
Zr   0.118019   8.358872  13.685564
Zr   2.183158   6.916117  10.940275
Zr   2.460984   9.348123   9.495294
Cu   0.028713  11.276401  10.563885
Zr  -0.111775   9.353214  11.315634
Cu   2.915032   8.260899  13.987029
Zr   5.265520   8.979104  13.134719
Zr   0.402970  11.469874  14.800083
Zr   3.163144  10.622100  16.087596
Cu   4.551803  10.560959  11.914234
Cu   3.808903  12.463993  14.964002
Zr   2.041440  12.080829  12.498406
13
Lattice=" 12.064180   0.000000   0.000000    0.000000  12.064180   6.032090    0.000000   0.000000  12.064180" Properties=species:S:1:pos:R:3 pbc="T T T" ID_RUN=1 SUB_STEP=4 ID_CENTRAL_ATOM=91 SUM_ICOHP=17.490660
Al  10.501845   7.403510   8.325786
Zr   9.124260   5.521703   9.204378
Cu   9.230678   8.276679   6.344781
Cu   8.018132   7.794329   8.375316
Zr  11.462117   6.482446   5.141500
Zr  12.059647   9.336855   7.540643
Cu  12.835173   7.053552   8.537187
Cu   9.069452   5.687067   5.963801
Cu  11.056170   4.929339   6.876432
Zr   9.419796  10.327083   9.496162
Cu   9.881480  10.433006   6.703148
Cu   9.294329   8.451875  10.903956
Cu  11.497827   6.581058  10.375062
14
Lattice=" 12.064180   0.000000   0.000000    0.000000  12.064180   0.000000    6.032090   0.000000  12.064180" Properties=species:S:1:pos:R:3 pbc="T T T" ID_RUN=1 SUB_STEP=5 ID_CENTRAL_ATOM=21 SUM_ICOHP=18.092990
Al   6.506170   9.866472   7.985365
Zr   4.871083   8.358872   9.506127
Zr   5.924266   6.916117   7.482217
Zr   4.871600   9.348123   4.821232
Zr   7.928344   8.483966   4.883906
Zr   3.207738   9.353214   6.639027
Cu   7.843322   8.260899   9.856580
Zr   9.588104   8.979104   8.645167
Cu   8.219778   6.891651   6.778247
Cu   7.868680  10.560959   6.633755
Cu   8.174906  12.463993   8.732005
Zr   4.935543  11.469874   9.065145
Zr   5.270436  12.080829   6.457992
Zr   8.551417  10.622100  10.776546
15
Lattice=" 12.064180   0.000000   0.000000    0.000000  12.064180   0.000000    6.032090   0.000000  12.064180" Properties=species:S:1:pos:R:3 pbc="T T T" ID_RUN=1 SUB_STEP=5 ID_CENTRAL_ATOM=91 SUM_ICOHP=17.065210
Al  12.813860   7.403510   4.624031
Cu  10.676522   7.584545   7.069465
Zr  15.271918   9.353214   6.639027
Zr  12.346023   5.521703   6.443527
Zr  12.412256   6.482446   1.900277
Cu  10.333899   8.276679   2.206442
Cu  10.257207   7.794329   4.478151
Zr  13.495755   9.336855   2.872216
Cu  15.340378   7.053552   5.010411
Cu  15.408148   7.459512   2.844987