  COHP#  atomMU  atomNU     distance     translation      ICOHP (at) eF   for spin  1
      1     Cu1     Zr2      3.14041       0   0   0           -0.50736 
      2     Cu1     Cu3      2.19215       0   0   0           -1.09480 
      3     Cu1     Cu7      3.28806       0   0   1           -0.05005 
      4     Cu1     Cu8      2.04838       0   0   0           -1.41377 
      5     Cu1     Zr9      3.04952       0   0   0           -0.56374 
      6     Cu1    Cu10      3.25207       0   0   0           -0.01747 
      7     Cu1    Zr11      2.99486       0   0   0           -0.63881 
      8     Cu1    Cu15      3.22543       0   0   1           -0.06546 
      9     Cu1    Zr23      3.86218       0   1   0           -0.19147 
     10     Cu1    Zr26      2.78305       0   0   0           -1.07707 
     11     Cu1    Cu28      3.79497       0   0   0           -0.01305 
     12     Cu1    Zr32      3.66298       0   0   1           -0.14606 
     13     Cu1    Cu39      3.98714       0   0   0           -0.00905 
     14     Cu1    Zr76      2.80561       1   0   0           -0.98796 
     15     Cu1    Cu78      4.01091       1   0   0           -0.00977 
     16     Cu1    Zr82      2.37165       1   0   0           -2.46784 
     17     Zr2     Cu3      3.51523       0   0   0           -0.19165 
     18     Zr2     Cu7      2.91855       0   0   1           -0.76425 
     19     Zr2     Cu8      4.02998       0   0   0           -0.04738 
     20     Zr2    Cu17      3.96664       0   1   0           -0.10787 
     21     Zr2    Cu21      4.06667       0   1   0           -0.06857 
     22     Zr2    Cu22      2.44811       0   1   0           -2.37593 
     23     Zr2    Zr23      3.31589       0   1   0           -1.09596 
     24     Zr2    Zr26      3.41877       0   0   0           -1.03064 
     25     Zr2    Cu27      3.14564       0   0   0           -0.39991 
     26     Zr2    Cu28      3.58463       0   0   0           -0.16053 
     27     Zr2    Zr32      2.72844       0   0   1           -3.91740 
     28     Zr2    Zr40      3.63389       0   1   0           -0.77017 
     29     Zr2    Cu45      3.22081       0   1   0           -0.40542 
     30     Zr2    Zr46      3.27174       0   1   0           -1.20268 
     31     Zr2    Zr47      2.80052       0   1   0           -3.27884 
     32     Zr2    Zr50      4.07336       0   1   1           -0.26674 
     33     Zr2    Zr76      3.10225       1   0   0           -1.66213 
     34     Cu3     Cu4      3.25088       0   0   0           -0.07255 
     35     Cu3     Cu8      3.76511       0   0   0           -0.00500 
     36     Cu3     Zr9      2.76238       0   0   0           -0.97199 
     37     Cu3    Cu10      2.41843       0   0   0           -0.80687 
     38     Cu3    Zr11      3.74990       0   0   0           -0.14326 
     39     Cu3    Zr23      2.22697       0   1   0           -3.63776 
     40     Cu3    Cu25      4.15134       0   1   0           -0.01136 
     41     Cu3    Zr26      2.87045       0   0   0           -0.92337 
     42     Cu3    Cu28      2.40082       0   0   0           -0.63811 
     43     Cu3    Zr29      3.56654       0   0   0           -0.21926 
     44     Cu3    Zr48      3.97778       0   1   0           -0.09951 
     45     Cu3    Zr76      3.41403       1   0   0           -0.25920 
     46     Cu3    Cu78      2.75297       1   0   0           -0.29838 
     47     Cu3    Zr97      4.16806       1   1   0           -0.08260 
     48     Cu4     Zr5      2.81101       0   0   0           -0.95001 
     49     Cu4     Cu6      2.78939       0   0   0           -0.25697 
     50     Cu4     Zr9      3.79569       0   0   0           -0.20730 
     51     Cu4    Cu10      3.75681       0   0   0           -0.04845 
     52     Cu4    Zr23      3.35504       0   1   0           -0.29904 
     53     Cu4    Cu24      3.15843       0   1   0           -0.06855 
     54     Cu4    Cu25      2.26110       0   1   0           -0.97120 
     55     Cu4    Cu28      4.18875       0   0   0           -0.00104 
     56     Cu4    Zr29      2.59266       0   0   0           -1.62726 
     57     Cu4    Zr48      3.65470       0   1   0           -0.18136 
     58     Cu4    Cu78      2.54347       1   0   0           -0.52422 
     59     Cu4    Zr79      3.38490       1   0   0           -0.29919 
     60     Cu4    Zr85      2.81902       1   0   0           -1.00811 
     61     Cu4    Zr97      2.76465       1   1   0           -1.04467 
     62     Zr5     Cu6      2.98555       0   0   0           -0.70526 
     63     Zr5     Cu7      3.26049       0   0   0           -0.35495 
     64     Zr5    Zr13      3.07369       0   0   0           -1.88254 
     65     Zr5    Zr16      3.96128       0   1  -1           -0.48664 
     66     Zr5    Cu21      2.24411       0   1  -1           -3.34587 
     67     Zr5    Cu24      2.77229       0   1   0           -1.00565 
     68     Zr5    Cu25      3.69643       0   1   0           -0.17535 
     69     Zr5    Zr50      3.21366       0   1   0           -1.38528 
     70     Zr5    Zr55      4.09924       1   0   0           -0.27719 
     71     Zr5    Zr79      3.37458       1   0   0           -1.02374 
     72     Zr5    Cu80      2.72483       1   0   0           -1.08323 
     73     Zr5    Zr81      3.31167       1   0   0           -1.17221 
     74     Zr5    Zr85      3.06395       1   0   0           -1.92588 
     75     Zr5    Cu94      4.14998       1   1  -1           -0.13378 
     76     Zr5    Zr97      4.09329       1   1   0           -0.30768 
     77     Zr5    Cu99      3.06164       1   1   0           -0.48228 
     78     Zr5   Zr100      3.36335       1   1   0           -1.08851 
     79     Cu6     Cu7      3.89165       0   0   0           -0.00868 
     80     Cu6    Zr13      3.10525       0   0   0           -0.49636 
     81     Cu6    Cu21      3.89486       0   1  -1           -0.02978 
     82     Cu6    Cu24      3.87040       0   1   0           -0.00468 
     83     Cu6    Cu25      2.96463       0   1   0           -0.15103 
     84     Cu6    Zr29      2.46219       0   0   0           -2.18949 
     85     Cu6    Cu30      2.42521       0   0   0           -0.60568 
     86     Cu6    Zr31      2.93046       0   0   0           -0.59276 
     87     Cu6    Zr32      3.83244       0   0   0           -0.09821 
     88     Cu6    Zr48      3.25719       0   1   0           -0.37828 
     89     Cu6    Cu49      3.33607       0   1   0           -0.06047 
     90     Cu6    Zr50      2.21458       0   1   0           -3.80337 
     91     Cu6    Zr54      3.77450       0   0   0           -0.12943 
     92     Cu6    Zr85      4.01767       1   0   0           -0.07647 
     93     Cu7     Cu8      3.87519       0   0  -1           -0.00574 
     94     Cu7    Zr13      2.29304       0   0   0           -2.98994 
     95     Cu7    Cu21      2.40314       0   1  -1           -0.64073 
     96     Cu7    Cu22      3.44848       0   1  -1           -0.05173 
     97     Cu7    Cu30      4.14864       0   0   0           -0.01298 
     98     Cu7    Zr32      2.66767       0   0   0           -1.24914 
     99     Cu7    Zr50      3.33357       0   1   0           -0.34837 
    100     Cu7    Zr76      2.77783       1   0  -1           -1.01280 
    101     Cu7    Cu80      3.51839       1   0   0           -0.03370 
    102     Cu7    Zr81      3.00918       1   0   0           -0.61545 
    103     Cu7    Zr82      3.02781       1   0  -1           -0.54479 
    104     Cu7    Cu86      3.72277       1   0   0           -0.02139 
    105     Cu7    Cu94      3.83195       1   1  -1           -0.01483 
    106     Cu8    Cu10      3.81452       0   0   0           -0.00223 
    107     Cu8    Zr11      3.07908       0   0   0           -0.56385 
    108     Cu8    Zr13      4.19635       0   0   1           -0.02947 
    109     Cu8    Cu15      2.38411       0   0   1           -0.68398 
    110     Cu8    Zr19      3.88809       0   0   1           -0.10499 
    111     Cu8    Zr26      2.49556       0   0   0           -1.81115 
    112     Cu8    Zr32      3.09544       0   0   1           -0.53638 
    113     Cu8    Zr33      2.97436       0   0   0           -0.61397 
    114     Cu8    Al34      3.78488       0   0   0           -0.09968 
    115     Cu8    Zr38      2.52803       0   0   1           -1.80477 
    116     Cu8    Cu39      2.57513       0   0   0           -0.44369 
    117     Cu8    Zr44      4.15135       0   0   1           -0.06119 
    118     Cu8    Zr82      3.25911       1   0   0           -0.48982 
    119     Zr9    Cu10      2.94234       0   0   0           -0.87852 
    120     Zr9    Zr11      2.76561       0   0   0           -3.43420 
    121     Zr9    Zr12      3.88900       0   0   0           -0.35343 
    122     Zr9    Zr52      3.98536       1   0   0           -0.32309 
    123     Zr9    Cu75      3.29768       1   0   0           -0.37017 
    124     Zr9    Zr76      3.89754       1   0   0           -0.40901 
    125     Zr9    Zr77      3.03339       1   0   0           -1.68696 
    126     Zr9    Cu78      2.12289       1   0   0           -4.56038 
    127     Zr9    Zr79      4.10646       1   0   0           -0.34393 
    128     Zr9    Zr82      3.54209       1   0   0           -0.72607 
    129     Zr9    Zr83      2.54737       1   0   0           -5.34526 
    130     Zr9    Zr85      3.70760       1   0   0           -0.51424 
    131     Zr9    Zr87      3.86346       1   0   0           -0.37438 
    132    Cu10    Zr11      2.50790       0   0   0           -1.66812 
    133    Cu10    Zr12      3.41497       0   0   0           -0.29039 
    134    Cu10    Zr26      3.16804       0   0   0           -0.32888 
    135    Cu10    Cu28      3.41322       0   0   0           -0.02888 
    136    Cu10    Zr29      2.57596       0   0   0           -1.80870 
    137    Cu10    Al34      2.50334       0   0   0           -1.55718 
    138    Cu10    Cu35      2.73723       0   0   0           -0.13507 
    139    Cu10    Cu36      2.98327       0   0   0           -0.10443 
    140    Cu10    Cu39      3.52410       0   0   0           -0.01845 
    141    Cu10    Zr40      3.63174       0   0   0           -0.09135 
    142    Cu10    Cu78      3.95047       1   0   0           -0.01034 
    143    Cu10    Zr85      4.03819       1   0   0           -0.11721 
    144    Zr11    Zr12      3.83245       0   0   0           -0.30254 
    145    Zr11    Cu15      3.09319       0   0   1           -0.52621 
    146    Zr11    Zr16      2.58163       0   0   0           -5.02993 
    147    Zr11    Zr26      4.17673       0   0   0           -0.22505 
    148    Zr11    Al34      3.47011       0   0   0           -0.96337 
    149    Zr11    Cu39      2.67386       0   0   0           -1.19675 
    150    Zr11    Zr40      3.75403       0   0   0           -0.35429 
    151    Zr11    Cu45      4.12529       0   0   0           -0.06004 
    152    Zr11    Zr82      3.57303       1   0   0           -0.77482 
    153    Zr11    Zr83      3.25443       1   0   0           -0.86907 
    154    Zr11    Zr87      2.95327       1   0   0           -2.04751 
    155    Zr11    Al89      3.19365       1   0   0           -1.01130 
    156    Zr12    Zr14      3.21660       0   0   0           -1.37225 
    157    Zr12    Cu17      2.77446       0   0   0           -0.88999 
    158    Zr12    Cu18      3.78951       0   0   0           -0.12331 
    159    Zr12    Cu22      3.74792       0   0   0           -0.02398 
    160    Zr12    Zr29      3.85748       0   0   0           -0.56247 
    161    Zr12    Cu36      2.65609       0   0   0           -1.22066 
    162    Zr12    Zr40      2.99496       0   0   0           -1.88106 
    163    Zr12    Zr83      3.58716       1   0   0           -0.49042 
    164    Zr12    Cu84      3.06754       1   0   0           -0.46350 
    165    Zr12    Zr85      2.60634       1   0   0           -5.46202 
    166    Zr12    Al89      2.47814       1   0   0           -3.80855 
    167    Zr12    Zr90      3.16994       1   0   0           -1.37493 
    168    Zr12    Cu91      3.25981       1   0   0           -0.36922 
    169    Zr13    Zr14      2.43157       0   0   0           -7.55402 
    170    Zr13    Cu15      3.79726       0   0   0           -0.10984 
    171    Zr13    Cu21      3.79000       0   1  -1           -0.17094 
    172    Zr13    Zr29      4.00959       0   0   0           -0.32414 
    173    Zr13    Cu30      2.95277       0   0   0           -0.67653 
    174    Zr13    Zr32      3.11687       0   0   0           -1.75114 
    175    Zr13    Zr38      3.59623       0   0   0           -0.62293 
    176    Zr13    Zr50      3.96405       0   1   0           -0.39681 
    177    Zr13    Cu80      2.98072       1   0   0           -0.64685 
    178    Zr13    Zr81      3.96655       1   0   0           -0.42336 
    179    Zr13    Zr82      3.73121       1   0  -1           -0.55046 
    180    Zr13    Zr85      3.37738       1   0   0           -1.01352 
    181    Zr13    Cu86      2.72448       1   0   0           -1.16458 
    182    Zr13    Cu91      3.80113       1   0   0           -0.12331 
    183    Zr14    Cu15      3.79539       0   0   0           -0.12543 
    184    Zr14    Cu17      3.63967       0   0   0           -0.17964 
    185    Zr14    Cu18      2.65359       0   0   0           -1.32349 
    186    Zr14    Zr19      3.67360       0   0   0           -0.50799 
    187    Zr14    Cu20      3.90532       0   0   0           -0.09971 
    188    Zr14    Zr29      4.01429       0   0   0           -0.31733 
    189    Zr14    Cu30      3.44271       0   0   0           -0.24279 
    190    Zr14    Cu36      2.97510       0   0   0           -0.70058 
    191    Zr14    Zr37      3.28929       0   0   0           -1.07341 
    192    Zr14    Zr38      3.10552       0   0   0           -1.66871 
    193    Zr14    Zr42      2.82104       0   0   0           -3.13558 
    194    Zr14    Cu43      4.05204       0   0   0           -0.08045 
    195    Zr14    Zr85      3.60448       1   0   0           -0.63376 
    196    Zr14    Cu86      3.07170       1   0   0           -0.57259 
    197    Zr14    Cu91      3.07388       1   0   0           -0.59976 
    198    Cu15    Zr16      3.33741       0   0  -1           -0.30663 
    199    Cu15    Cu18      3.88730       0   0   0           -0.00402 
    200    Cu15    Zr19      2.64381       0   0   0           -1.43955 
    201    Cu15    Cu20      2.25237       0   0   0           -0.83413 
    202    Cu15    Cu24      3.58504       0   0   0           -0.02114 
    203    Cu15    Zr38      2.92370       0   0   0           -0.76407 
    204    Cu15    Cu39      3.41254       0   0  -1           -0.03455 
    205    Cu15    Zr82      2.46620       1   0  -1           -2.02484 
    206    Cu15    Cu86      2.67367       1   0   0           -0.28581 
    207    Cu15    Zr87      3.01050       1   0  -1           -0.57983 
    208    Cu15    Cu93      4.19726       1   0   0           -0.00365 
    209    Zr16    Zr19      3.51348       0   0   1           -0.82271 
    210    Zr16    Cu20      3.76100       0   0   1           -0.09620 
    211    Zr16    Cu21      2.64567       0   0   0           -1.22497 
    212    Zr16    Cu22      3.68720       0   0   0           -0.08207 
    213    Zr16    Cu24      2.79969       0   0   1           -1.05039 
    214    Zr16    Cu39      2.90424       0   0   0           -0.86701 
    215    Zr16    Zr40      3.94146       0   0   0           -0.28794 
    216    Zr16    Zr44      3.91852       0   0   1           -0.45733 
    217    Zr16    Cu45      2.99859       0   0   0           -0.58528 
    218    Zr16    Zr50      2.75683       0   0   1           -3.75066 
    219    Zr16    Zr87      3.03465       1   0   0           -1.68296 
    220    Zr16    Al89      3.20147       1   0   0           -1.21427 
    221    Zr16    Cu94      3.06935       1   0   0           -0.34376 
    222    Zr16   Zr100      3.37934       1   0   1           -1.00263 
    223    Cu17    Cu18      2.37129       0   0   0           -0.71764 
    224    Cu17    Cu22      2.40237       0   0   0           -0.47444 
    225    Cu17    Zr23      2.66944       0   0   0           -1.41478 
    226    Cu17    Cu36      3.77507       0   0   0           -0.02361 
    227    Cu17    Zr40      3.11861       0   0   0           -0.51599 
    228    Cu17    Zr42      2.95269       0   0   0           -0.66548 
    229    Cu17    Zr76      3.61759       1  -1   0           -0.16111 
    230    Cu17    Al89      2.97878       1   0   0           -0.62274 
    231    Cu17    Zr90      2.71183       1   0   0           -0.97054 
    232    Cu17    Cu91      3.57555       1   0   0           -0.02983 
    233    Cu17    Cu94      3.94488       1   0   0            0.00298 
    234    Cu17    Zr96      2.80619       1   0   0           -0.82624 
    235    Cu17    Zr97      3.57549       1   0   0           -0.23813 
    236    Cu18    Zr19      3.09970       0   0   0           -0.54153 
    237    Cu18    Cu20      2.53338       0   0   0           -0.55989 
    238    Cu18    Zr23      3.30107       0   0   0           -0.27082 
    239    Cu18    Cu24      3.53566       0   0   0            0.00587 
    240    Cu18    Cu25      3.36843       0   0   0           -0.06229 
    241    Cu18    Zr42      2.75369       0   0   0           -0.92640 
    242    Cu18    Cu86      3.27478       1   0   0           -0.05644 
    243    Cu18    Zr90      3.16083       1   0   0           -0.51179 
    244    Cu18    Cu91      2.48060       1   0   0           -0.59147 
    245    Cu18    Cu92      2.98743       1   0   0           -0.14643 
    246    Cu18    Cu93      4.14665       1   0   0           -0.01364 
    247    Cu18    Zr96      3.97136       1   0   0           -0.07466 
    248    Cu18    Zr97      2.57060       1   0   0           -1.70283 
    249    Cu18    Cu98      4.17611       1   0   0           -0.00094 
    250    Zr19    Cu20      2.90795       0   0   0           -0.78726 
    251    Zr19    Cu24      2.69948       0   0   0           -1.19237 
    252    Zr19    Cu25      2.26016       0   0   0           -3.02954 
    253    Zr19    Zr38      2.71034       0   0   0           -3.88366 
    254    Zr19    Cu39      3.64062       0   0  -1           -0.28303 
    255    Zr19    Zr42      3.08591       0   0   0           -1.79255 
    256    Zr19    Cu43      3.13476       0   0   0           -0.46725 
    257    Zr19    Zr44      3.26769       0   0   0           -1.25822 
    258    Zr19    Zr48      3.90731       0   0   0           -0.62932 
    259    Zr19    Cu49      2.64679       0   0   0           -1.27645 
    260    Zr19    Zr50      3.88517       0   0   0           -0.44153 
    261    Zr19    Zr97      4.03777       1   0   0           -0.39793 
    262    Cu20    Cu24      2.36319       0   0   0           -0.67551 
    263    Cu20    Cu25      3.77681       0   0   0           -0.00293 
    264    Cu20    Zr60      4.06858       1   0   0           -0.09656 
    265    Cu20    Zr82      3.66188       1   0  -1           -0.20846 
    266    Cu20    Cu86      2.43294       1   0   0           -0.69263 
    267    Cu20    Zr87      2.82958       1   0  -1           -0.93049 
    268    Cu20    Cu91      3.18098       1   0   0           -0.05517 
    269    Cu20    Cu92      2.23786       1   0   0           -0.94205 
    270    Cu20    Cu93      2.56130       1   0   0           -0.36202 
    271    Cu20    Zr97      3.24608       1   0   0           -0.46866 
    272    Cu20    Cu99      4.12391       1   0   0           -0.00427 
    273    Cu20   Zr100      3.36707       1   0   0           -0.27948 
    274    Cu21    Cu22      3.09051       0   0   0           -0.10695 
    275    Cu21    Cu24      3.35254       0   0   1           -0.03283 
    276    Cu21    Cu45      3.87213       0   0   0           -0.01243 
    277    Cu21    Zr50      2.69722       0   0   1           -1.17441 
    278    Cu21    Zr76      3.60969       1  -1   0           -0.20019 
    279    Cu21    Cu80      3.75898       1  -1   1           -0.01987 
    280    Cu21    Zr81      2.85166       1  -1   1           -0.92491 
    281    Cu21    Al89      3.62108       1   0   0           -0.19328 
    282    Cu21    Cu94      2.16431       1   0   0           -1.22513 
    283    Cu21    Cu95      3.33723       1   0   0           -0.01810 
    284    Cu21    Cu99      4.11452       1   0   1           -0.00807 
    285    Cu21   Zr100      3.15447       1   0   1           -0.41632 
    286    Cu22    Zr23      3.57818       0   0   0           -0.24223 
    287    Cu22    Zr40      2.54272       0   0   0           -1.51369 
    288    Cu22    Cu45      3.15323       0   0   0           -0.11387 
    289    Cu22    Zr47      3.90196       0   0   0           -0.13012 
    290    Cu22    Zr50      4.16700       0   0   1           -0.05231 
    291    Cu22    Zr76      2.64613       1  -1   0           -1.51009 
    292    Cu22    Al89      2.33854       1   0   0           -2.04751 
    293    Cu22    Cu94      2.48670       1   0   0           -0.24424 
    294    Cu22    Cu95      4.16087       1   0   0           -0.00429 
    295    Cu22    Zr96      3.45682       1   0   0           -0.20779 
    296    Zr23    Cu25      3.01221       0   0   0           -0.71708 
    297    Zr23    Cu28      2.76057       0  -1   0           -0.98885 
    298    Zr23    Zr42      2.80392       0   0   0           -3.22756 
    299    Zr23    Zr47      3.49292       0   0   0           -0.81554 
    300    Zr23    Zr48      3.50626       0   0   0           -0.86883 
    301    Zr23    Zr76      3.52648       1  -1   0           -0.78699 
    302    Zr23    Cu78      3.17662       1  -1   0           -0.48508 
    303    Zr23    Zr96      3.86114       1   0   0           -0.48814 
    304    Zr23    Zr97      3.06298       1   0   0           -1.97395 
    305    Cu24    Cu25      2.31523       0   0   0           -0.70184 
    306    Cu24    Zr50      3.40826       0   0   0           -0.25853 
    307    Cu24    Zr79      4.11446       1  -1   0           -0.08670 
    308    Cu24    Zr87      3.61523       1   0  -1           -0.19748 
    309    Cu24    Cu92      3.09511       1   0   0           -0.07853 
    310    Cu24    Zr97      2.70410       1   0   0           -1.29740 
    311    Cu24    Cu99      3.17247       1   0   0           -0.07287 
    312    Cu24   Zr100      2.72770       1   0   0           -1.06701 
    313    Cu25    Cu28      4.06793       0  -1   0           -0.01357 
    314    Cu25    Zr29      3.79497       0  -1   0           -0.19891 
    315    Cu25    Zr42      3.37088       0   0   0           -0.27399 
    316    Cu25    Cu43      4.19789       0   0   0           -0.00672 
    317    Cu25    Zr48      2.67303       0   0   0           -1.27082 
    318    Cu25    Cu49      2.69990       0   0   0           -0.28636 
    319    Cu25    Zr50      3.49133       0   0   0           -0.21794 
    320    Cu25    Cu78      4.05423       1  -1   0           -0.00344 
    321    Cu25    Zr97      2.85908       1   0   0           -0.85968 
    322    Zr26    Cu27      2.59193       0   0   0           -1.62927 
    323    Zr26    Cu28      2.25416       0   0   0           -3.15169 
    324    Zr26    Zr32      3.65003       0   0   1           -0.67925 
    325    Zr26    Zr33      2.87940       0   0   0           -2.66102 
    326    Zr26    Al34      3.05630       0   0   0           -1.41490 
    327    Zr26    Cu35      3.59973       0   0   0           -0.11666 
    328    Zr26    Cu39      3.54368       0   0   0           -0.11998 
    329    Zr26    Zr51      3.67235       0   0   0           -0.69048 
    330    Zr26    Cu53      2.74016       0   0   0           -1.01920 
    331    Zr26    Zr57      3.44807       0   0   0           -0.83967 
    332    Cu27    Cu28      2.70704       0   0   0           -0.27581 
    333    Cu27    Zr32      3.75848       0   0   1           -0.14855 
    334    Cu27    Zr33      4.15053       0   0   0           -0.07479 
    335    Cu27    Zr46      3.27748       0   1   0           -0.27444 
    336    Cu27    Zr47      2.50697       0   1   0           -1.85472 
    337    Cu27    Zr51      2.55776       0   0   0           -1.68826 
    338    Cu27    Zr52      3.10069       0   0   0           -0.53758 
    339    Cu27    Cu53      2.89196       0   0   0           -0.21555 
    340    Cu27    Zr57      4.13258       0   0   0           -0.06767 
    341    Cu27    Cu64      3.59781       0   1   0           -0.01325 
    342    Cu27    Cu69      2.41254       0   1   0           -0.67921 
    343    Cu27    Zr70      2.90649       0   1   0           -0.83104 
    344    Cu28    Zr29      3.60887       0   0   0           -0.17943 
    345    Cu28    Al34      4.17759       0   0   0           -0.01637 
    346    Cu28    Cu35      3.45563       0   0   0           -0.02203 
    347    Cu28    Zr42      4.14609       0   1   0           -0.08210 
    348    Cu28    Zr47      3.22900       0   1   0           -0.38550 
    349    Cu28    Zr48      2.43656       0   1   0           -2.47896 
    350    Cu28    Cu53      2.40507       0   0   0           -0.59717 
    351    Cu28    Zr70      3.32926       0   1   0           -0.36089 
    352    Cu28    Cu71      3.81955       0   1   0           -0.03484 
    353    Zr29    Cu30      3.12548       0   0   0           -0.53129 
    354    Zr29    Al34      3.98731       0   0   0           -0.54048 
    355    Zr29    Cu35      2.53526       0   0   0           -1.83001 
    356    Zr29    Cu36      2.80580       0   0   0           -0.98317 
    357    Zr29    Zr37      3.77432       0   0   0           -0.55291 
    358    Zr29    Zr48      3.20399       0   1   0           -1.56307 
    359    Zr29    Zr54      3.31147       0   0   0           -1.27706 
    360    Zr29    Zr85      3.36662       1   0   0           -1.11374 
    361    Cu30    Zr31      2.58693       0   0   0           -1.48920 
    362    Cu30    Zr32      2.74042       0   0   0           -1.15746 
    363    Cu30    Cu35      4.16920       0   0   0           -0.01567 
    364    Cu30    Cu36      3.96058       0   0   0           -0.02723 
    365    Cu30    Zr37      2.34076       0   0   0           -2.63600 
    366    Cu30    Zr38      3.52585       0   0   0           -0.17113 
    367    Cu30    Zr46      4.18322       0   1  -1           -0.07802 
    368    Cu30    Zr50      3.76225       0   1   0           -0.19729 
    369    Cu30    Zr54      3.08097       0   0   0           -0.53956 
    370    Cu30    Zr55      3.98542       0   0   0           -0.08966 
    371    Cu30    Cu61      2.51418       0   0   0           -0.41387 
    372    Zr31    Zr32      3.60700       0   0   0           -0.68223 
    373    Zr31    Zr44      3.70807       0   1   0           -0.57492 
    374    Zr31    Zr46      2.79538       0   1  -1           -3.25015 
    375    Zr31    Zr48      3.74150       0   1   0           -0.55632 
    376    Zr31    Cu49      3.18099       0   1   0           -0.39323 
    377    Zr31    Zr50      3.22561       0   1   0           -1.38119 
    378    Zr31    Zr54      2.77979       0   0   0           -3.33280 
    379    Zr31    Zr55      2.72069       0   0   0           -3.27124 
    380    Zr31    Cu61      3.32743       0   0   0           -0.33179 
    381    Zr31    Cu68      3.49107       0   1  -1           -0.20505 
    382    Zr31    Cu72      3.15843       0   1   0           -0.40557 
    383    Zr31    Zr73      3.75337       0   1   0           -0.51089 
    384    Zr31    Cu74      2.73540       0   1   0           -0.84039 
    385    Zr31    Cu99      4.18395       0   1   0           -0.04812 
    386    Zr32    Zr33      4.12673       0   0  -1           -0.26884 
    387    Zr32    Zr38      3.23428       0   0   0           -1.43592 
    388    Zr32    Cu45      4.18875       0   1  -1           -0.06519 
    389    Zr32    Zr46      2.93761       0   1  -1           -2.31742 
    390    Zr32    Zr50      3.58513       0   1   0           -0.67257 
    391    Zr32    Zr51      3.31594       0   0  -1           -1.13173 
    392    Zr32    Cu61      3.08109       0   0   0           -0.53414 
    393    Zr33    Al34      3.39175       0   0   0           -0.86675 
    394    Zr33    Zr38      3.09968       0   0   1           -1.81191 
    395    Zr33    Cu39      2.88173       0   0   0           -0.64702 
    396    Zr33    Cu43      4.18597       0   0   1           -0.04271 
    397    Zr33    Zr44      3.04943       0   0   1           -1.94790 
    398    Zr33    Zr51      3.18100       0   0   0           -1.54577 
    399    Zr33    Cu53      4.12010       0   0   0           -0.07537 
    400    Zr33    Cu56      2.98692       0   0   0           -0.67256 
    401    Zr33    Zr57      3.08576       0   0   0           -1.65522 
    402    Zr33    Zr60      3.38509       0   0   1           -1.01245 
    403    Zr33    Cu61      3.67555       0   0   1           -0.17277 
    404    Zr33    Zr62      4.17611       0   0   0           -0.17208 
    405    Zr33    Cu66      2.76738       0   0   1           -1.15474 
    406    Zr33    Cu67      2.84696       0   0   1           -0.88589 
    407    Zr33    Cu75      3.94351       0   0   0           -0.09453 
    408    Al34    Cu35      2.12262       0   0   0           -3.00561 
    409    Al34    Cu36      3.16559       0   0   0           -0.48664 