
     Program PWSCF v.6.2 (svn rev. 13949:13950) starts on 19Apr2019 at 17:25:16 

     This program is part of the open-source Quantum ESPRESSO suite
     for quantum simulation of materials; please cite
         "P. Giannozzi et al., J. Phys.:Condens. Matter 21 395502 (2009);
         "P. Giannozzi et al., J. Phys.:Condens. Matter 29 465901 (2017);
          URL http://www.quantum-espresso.org", 
     in publications or presentations arising from this work. More details at
     http://www.quantum-espresso.org/quote

     Parallel version (MPI & OpenMP), running on     192 processor cores
     Number of MPI processes:               192
     Threads/MPI process:                     1

     MPI processes distributed on     8 nodes
     K-points division:     npool     =       8
     R & G space division:  proc/nbgrp/npool/nimage =      24
     Waiting for input...
     Reading input from standard input

     Current dimensions of program PWSCF are:
     Max number of different atomic species (ntypx) = 10
     Max number of k-points (npk) =  40000
     Max angular momentum in pseudopotentials (lmaxx) =  3
               file Al.aryjr-1.0.0-ld1.UPF: wavefunction(s)  3S 3P renormalized
               file Cu.aryjr-1.0.0-ld1.UPF: wavefunction(s)  4S 3P 3D renormalized
               file Zr.aryjr-1.0.0-ld1.UPF: wavefunction(s)  4S 4P renormalized

     Subspace diagonalization in iterative solution of the eigenvalue problem:
     one sub-group per band group will be used
     scalapack distributed-memory algorithm (size of sub-group:  3*  3 procs)

 
     Parallelization info
     --------------------
     sticks:   dense  smooth     PW     G-vecs:    dense   smooth      PW
     Min         959     480    123               109501    38709    5088
     Max         960     481    124               109504    38714    5094
     Sum       23029   11521   2965              2628049   929093  122183
 

     Title: 
     Zr49Cu49Al2                                                                


     bravais-lattice index     =            0
     lattice parameter (alat)  =      22.7304  a.u.
     unit-cell volume          =   11744.1708 (a.u.)^3
     number of atoms/cell      =          100
     number of atomic types    =            3
     number of electrons       =      1525.00
     number of Kohn-Sham states=         1086
     kinetic-energy cutoff     =      70.0000  Ry
     charge density cutoff     =     560.0000  Ry
     convergence threshold     =      1.0E-06
     mixing beta               =       0.4000
     number of iterations used =            8  plain     mixing
     Exchange-correlation      =  SLA  PW   PBX  PBC ( 1  4  3  4 0 0)

     celldm(1)=  22.730420  celldm(2)=   0.000000  celldm(3)=   0.000000
     celldm(4)=   0.000000  celldm(5)=   0.000000  celldm(6)=   0.000000

     crystal axes: (cart. coord. in units of alat)
               a(1) = (   1.000000   0.000000   0.000000 )  
               a(2) = (   0.000000   1.000000   0.000000 )  
               a(3) = (   0.000000   0.500000   1.000000 )  

     reciprocal axes: (cart. coord. in units 2 pi/alat)
               b(1) = (  1.000000  0.000000  0.000000 )  
               b(2) = (  0.000000  1.000000 -0.500000 )  
               b(3) = (  0.000000  0.000000  1.000000 )  


     PseudoPot. # 1 for Al read from file:
     /scratch/rmnvm/ary.junior/UPFs/Al.aryjr-1.0.0-ld1.UPF
     MD5 check sum: 23518be3108914e66f28d0b5ae5ea896
     Pseudo is Projector augmented-wave + core cor, Zval =  3.0
     Generated using "atomic" code by A. Dal Corso  v.5.3.0 svn rev. 11974
     Shape of augmentation charge: PSQ
     Using radial grid of 1135 points,  4 beta functions with: 
                l(1) =   0
                l(2) =   0
                l(3) =   1
                l(4) =   1
     Q(r) pseudized with 0 coefficients 


     PseudoPot. # 2 for Cu read from file:
     /scratch/rmnvm/ary.junior/UPFs/Cu.aryjr-1.0.0-ld1.UPF
     MD5 check sum: 9308548b6d8348cb0f7fa79efd90ef1e
     Pseudo is Projector augmented-wave + core cor, Zval = 19.0
     Generated using "atomic" code by A. Dal Corso  v.5.3.0 svn rev. 11974
     Shape of augmentation charge: PSQ
     Using radial grid of 1199 points,  6 beta functions with: 
                l(1) =   0
                l(2) =   0
                l(3) =   1
                l(4) =   1
                l(5) =   2
                l(6) =   2
     Q(r) pseudized with 0 coefficients 


     PseudoPot. # 3 for Zr read from file:
     /scratch/rmnvm/ary.junior/UPFs/Zr.aryjr-1.0.0-ld1.UPF
     MD5 check sum: 20f111a850f3481eb9ed9a4dbb9cca44
     Pseudo is Projector augmented-wave + core cor, Zval = 12.0
     Generated using "atomic" code by A. Dal Corso  v.5.3.0 svn rev. 11974
     Shape of augmentation charge: PSQ
     Using radial grid of 1225 points,  6 beta functions with: 
                l(1) =   0
                l(2) =   0
                l(3) =   1
                l(4) =   1
                l(5) =   2
                l(6) =   2
     Q(r) pseudized with 0 coefficients 


     atomic species   valence    mass     pseudopotential
        Al             3.00    26.98150     Al( 1.00)
        Cu            19.00    63.54630     Cu( 1.00)
        Zr            12.00    91.22400     Zr( 1.00)

     No symmetry found


                                    s                        frac. trans.

      isym =  1     identity                                     

 cryst.   s( 1) = (     1          0          0      )
                  (     0          1          0      )
                  (     0          0          1      )

 cart.    s( 1) = (  1.0000000  0.0000000  0.0000000 )
                  (  0.0000000  1.0000000  0.0000000 )
                  (  0.0000000  0.0000000  1.0000000 )


   Cartesian axes

     site n.     atom                  positions (alat units)
         1           Cu  tau(   1) = (   0.1532540   0.3061515   0.1567850  )
         2           Zr  tau(   2) = (   0.2632450   0.0703945   0.1788030  )
         3           Cu  tau(   3) = (   0.1770600   0.3002495   0.3373750  )
         4           Cu  tau(   4) = (   0.1041000   0.3568065   0.5913870  )
         5           Zr  tau(   5) = (   0.0179050   0.4305690   0.7957000  )
         6           Cu  tau(   6) = (   0.2603280   0.4370445   0.7428210  )
         7           Cu  tau(   7) = (   0.1177750   0.5954890   0.9862360  )
         8           Cu  tau(   8) = (   0.2607600   0.3779505   0.0459350  )
         9           Zr  tau(   9) = (  -0.0132520   0.4250305   0.3065150  )
        10           Cu  tau(  10) = (   0.2185700   0.4969765   0.3368330  )
        11           Zr  tau(  11) = (   0.1152240   0.5520955   0.1643430  )
        12           Zr  tau(  12) = (   0.0615040   0.7124215   0.4343910  )
        13           Zr  tau(  13) = (   0.1385390   0.6555780   0.8065140  )
        14           Zr  tau(  14) = (   0.1772030   0.7916435   0.6620950  )
        15           Cu  tau(  15) = (   0.1140550   0.9448090   0.9306380  )
        16           Zr  tau(  16) = (   0.1178980   0.7083750   0.0172560  )
        17           Cu  tau(  17) = (   0.0775240   0.9420190   0.4191720  )
        18           Cu  tau(  18) = (   0.0595990   0.9717825   0.6132270  )
        19           Zr  tau(  19) = (   0.2258380   1.0666130   0.7857960  )
        20           Cu  tau(  20) = (  -0.0091150   1.0140765   0.8077750  )
        21           Cu  tau(  21) = (   0.0411810   0.9110785  -0.0202190  )
        22           Cu  tau(  22) = (   0.1181520   0.9349290   0.2237520  )
        23           Zr  tau(  23) = (   0.1762560   1.1404325   0.4308390  )
        24           Cu  tau(  24) = (   0.0470770   1.2019445   0.7956290  )
        25           Cu  tau(  25) = (   0.1929970   1.2112655   0.6704530  )
        26           Zr  tau(  26) = (   0.3771530   0.3288565   0.2105170  )
        27           Cu  tau(  27) = (   0.5030380   0.1561775   0.2382310  )
        28           Cu  tau(  28) = (   0.3667550   0.2596965   0.3843810  )
        29           Zr  tau(  29) = (   0.2658580   0.4917165   0.5456370  )
        30           Cu  tau(  30) = (   0.3727640   0.6040230   0.7541460  )
        31           Zr  tau(  31) = (   0.4909010   0.4374055   0.8215010  )
        32           Zr  tau(  32) = (   0.3344380   0.6416370   0.9755560  )
        33           Zr  tau(  33) = (   0.5010310   0.4354810   0.0356180  )
        34           Al  tau(  34) = (   0.3891260   0.5794640   0.2506940  )
        35           Cu  tau(  35) = (   0.4270120   0.5385610   0.4181220  )
        36           Cu  tau(  36) = (   0.2812900   0.7059785   0.4547210  )
        37           Zr  tau(  37) = (   0.4431220   0.7364590   0.6301280  )
        38           Zr  tau(  38) = (   0.3330890   0.8786625   0.8486030  )
        39           Cu  tau(  39) = (   0.3161030   0.5828150   0.0742360  )
        40           Zr  tau(  40) = (   0.2556010   0.7945755   0.3018270  )
        41           Zr  tau(  41) = (   0.4786970   0.7971985   0.4392130  )
        42           Zr  tau(  42) = (   0.2806530   0.9720620   0.5536880  )
        43           Cu  tau(  43) = (   0.4540980   0.9808725   0.6937910  )
        44           Zr  tau(  44) = (   0.4302580   1.1589495   0.9390530  )
        45           Cu  tau(  45) = (   0.3223560   0.8193345   0.1068750  )
        46           Zr  tau(  46) = (   0.4766140   0.9585755   0.0524910  )
        47           Zr  tau(  47) = (   0.4135570   0.9988490   0.3415760  )
        48           Zr  tau(  48) = (   0.3922520   1.2606305   0.5853350  )
        49           Cu  tau(  49) = (   0.3999990   1.1978045   0.7561930  )
        50           Zr  tau(  50) = (   0.2492660   1.3633590   0.9111820  )
        51           Zr  tau(  51) = (   0.5957130   0.1889545   0.0496730  )
        52           Zr  tau(  52) = (   0.7575530   0.1968940   0.2343880  )
        53           Cu  tau(  53) = (   0.5410490   0.3560165   0.3663910  )
        54           Zr  tau(  54) = (   0.5357240   0.4814795   0.5991130  )
        55           Zr  tau(  55) = (   0.6936450   0.5353500   0.7999840  )
        56           Cu  tau(  56) = (   0.6996980   0.5556895   0.1236250  )
        57           Zr  tau(  57) = (   0.6154380   0.4800495   0.2608670  )
        58           Cu  tau(  58) = (   0.6163860   0.6278900   0.4899580  )
        59           Zr  tau(  59) = (   0.7406390   0.6799975   0.6748370  )
        60           Zr  tau(  60) = (   0.7412480   0.8263980   0.9376560  )
        61           Cu  tau(  61) = (   0.5350970   0.7102845   0.8319010  )
        62           Zr  tau(  62) = (   0.5219300   0.7504020   0.1802780  )
        63           Cu  tau(  63) = (   0.6764360   0.7178545   0.3511770  )
        64           Cu  tau(  64) = (   0.6518880   0.9396800   0.3811960  )
        65           Zr  tau(  65) = (   0.6685970   0.8888215   0.6194550  )
        66           Cu  tau(  66) = (   0.5727900   0.9169750   0.8178100  )
        67           Cu  tau(  67) = (   0.6643170   1.0936050   0.9696280  )
        68           Cu  tau(  68) = (   0.6453030   0.8054995   0.0288590  )
        69           Cu  tau(  69) = (   0.6369180   1.0068415   0.2400110  )
        70           Zr  tau(  70) = (   0.6303260   1.1958725   0.4397490  )
        71           Cu  tau(  71) = (   0.5295050   1.0692420   0.5795060  )
        72           Cu  tau(  72) = (   0.6242650   1.2872960   0.6522980  )
        73           Zr  tau(  73) = (   0.6264570   1.1586210   0.7858100  )
        74           Cu  tau(  74) = (   0.6866730   1.4207335   0.9360050  )
        75           Cu  tau(  75) = (   0.7980740   0.3336390   0.1298460  )
        76           Zr  tau(  76) = (   1.0111800   0.1240115   0.1891070  )
        77           Zr  tau(  77) = (   0.7674370   0.4401060   0.4300980  )
        78           Cu  tau(  78) = (   0.9704410   0.3058470   0.4356580  )
        79           Zr  tau(  79) = (   0.8233740   0.3733905   0.6018010  )
        80           Cu  tau(  80) = (   0.8934150   0.6197770   0.8001380  )
        81           Zr  tau(  81) = (   0.8687050   0.5737195   0.9774930  )
        82           Zr  tau(  82) = (   0.9982840   0.3116075   0.0350030  )
        83           Zr  tau(  83) = (   0.8616490   0.5869875   0.2520130  )
        84           Cu  tau(  84) = (   0.8132930   0.6746760   0.4791560  )
        85           Zr  tau(  85) = (   0.9981660   0.5655835   0.5806030  )
        86           Cu  tau(  86) = (   0.9756890   0.8126190   0.8175500  )
        87           Zr  tau(  87) = (   0.9133460   0.5608945   0.0248790  )
        88           Zr  tau(  88) = (   0.7753420   0.7942490   0.1916040  )
        89           Al  tau(  89) = (   1.0048900   0.7787400   0.2477300  )
        90           Zr  tau(  90) = (   0.8636860   0.8844350   0.4614320  )
        91           Cu  tau(  91) = (   0.9239290   0.8191635   0.6420570  )
        92           Cu  tau(  92) = (   0.8484040   1.0684370   0.7012020  )
        93           Cu  tau(  93) = (   0.7838010   0.9660175   0.8199790  )
        94           Cu  tau(  94) = (   0.9491700   0.8649620   0.1273720  )
        95           Cu  tau(  95) = (   0.7960670   0.9601910   0.1001260  )
        96           Zr  tau(  96) = (   0.8820060   1.0452910   0.3447760  )
        97           Zr  tau(  97) = (   0.9756070   1.1663270   0.5854800  )
        98           Cu  tau(  98) = (   0.7438140   1.1101195   0.5722210  )
        99           Cu  tau(  99) = (   0.8036460   1.2975115   0.7614030  )
       100           Zr  tau( 100) = (   0.8574510   1.2353595   0.9154230  )

   Crystallographic axes

     site n.     atom                  positions (cryst. coord.)
         1           Cu  tau(   1) = (  0.1532540  0.2277590  0.1567850  )
         2           Zr  tau(   2) = (  0.2632450 -0.0190070  0.1788030  )
         3           Cu  tau(   3) = (  0.1770600  0.1315620  0.3373750  )
         4           Cu  tau(   4) = (  0.1041000  0.0611130  0.5913870  )
         5           Zr  tau(   5) = (  0.0179050  0.0327190  0.7957000  )
         6           Cu  tau(   6) = (  0.2603280  0.0656340  0.7428210  )
         7           Cu  tau(   7) = (  0.1177750  0.1023710  0.9862360  )
         8           Cu  tau(   8) = (  0.2607600  0.3549830  0.0459350  )
         9           Zr  tau(   9) = ( -0.0132520  0.2717730  0.3065150  )
        10           Cu  tau(  10) = (  0.2185700  0.3285600  0.3368330  )
        11           Zr  tau(  11) = (  0.1152240  0.4699240  0.1643430  )
        12           Zr  tau(  12) = (  0.0615040  0.4952260  0.4343910  )
        13           Zr  tau(  13) = (  0.1385390  0.2523210  0.8065140  )
        14           Zr  tau(  14) = (  0.1772030  0.4605960  0.6620950  )
        15           Cu  tau(  15) = (  0.1140550  0.4794900  0.9306380  )
        16           Zr  tau(  16) = (  0.1178980  0.6997470  0.0172560  )
        17           Cu  tau(  17) = (  0.0775240  0.7324330  0.4191720  )
        18           Cu  tau(  18) = (  0.0595990  0.6651690  0.6132270  )
        19           Zr  tau(  19) = (  0.2258380  0.6737150  0.7857960  )
        20           Cu  tau(  20) = ( -0.0091150  0.6101890  0.8077750  )
        21           Cu  tau(  21) = (  0.0411810  0.9211880 -0.0202190  )
        22           Cu  tau(  22) = (  0.1181520  0.8230530  0.2237520  )
        23           Zr  tau(  23) = (  0.1762560  0.9250130  0.4308390  )
        24           Cu  tau(  24) = (  0.0470770  0.8041300  0.7956290  )
        25           Cu  tau(  25) = (  0.1929970  0.8760390  0.6704530  )
        26           Zr  tau(  26) = (  0.3771530  0.2235980  0.2105170  )
        27           Cu  tau(  27) = (  0.5030380  0.0370620  0.2382310  )
        28           Cu  tau(  28) = (  0.3667550  0.0675060  0.3843810  )
        29           Zr  tau(  29) = (  0.2658580  0.2188980  0.5456370  )
        30           Cu  tau(  30) = (  0.3727640  0.2269500  0.7541460  )
        31           Zr  tau(  31) = (  0.4909010  0.0266550  0.8215010  )
        32           Zr  tau(  32) = (  0.3344380  0.1538590  0.9755560  )
        33           Zr  tau(  33) = (  0.5010310  0.4176720  0.0356180  )
        34           Al  tau(  34) = (  0.3891260  0.4541170  0.2506940  )
        35           Cu  tau(  35) = (  0.4270120  0.3295000  0.4181220  )
        36           Cu  tau(  36) = (  0.2812900  0.4786180  0.4547210  )
        37           Zr  tau(  37) = (  0.4431220  0.4213950  0.6301280  )
        38           Zr  tau(  38) = (  0.3330890  0.4543610  0.8486030  )
        39           Cu  tau(  39) = (  0.3161030  0.5456970  0.0742360  )
        40           Zr  tau(  40) = (  0.2556010  0.6436620  0.3018270  )
        41           Zr  tau(  41) = (  0.4786970  0.5775920  0.4392130  )
        42           Zr  tau(  42) = (  0.2806530  0.6952180  0.5536880  )
        43           Cu  tau(  43) = (  0.4540980  0.6339770  0.6937910  )
        44           Zr  tau(  44) = (  0.4302580  0.6894230  0.9390530  )
        45           Cu  tau(  45) = (  0.3223560  0.7658970  0.1068750  )
        46           Zr  tau(  46) = (  0.4766140  0.9323300  0.0524910  )
        47           Zr  tau(  47) = (  0.4135570  0.8280610  0.3415760  )
        48           Zr  tau(  48) = (  0.3922520  0.9679630  0.5853350  )
        49           Cu  tau(  49) = (  0.3999990  0.8197080  0.7561930  )
        50           Zr  tau(  50) = (  0.2492660  0.9077680  0.9111820  )
        51           Zr  tau(  51) = (  0.5957130  0.1641180  0.0496730  )
        52           Zr  tau(  52) = (  0.7575530  0.0797000  0.2343880  )
        53           Cu  tau(  53) = (  0.5410490  0.1728210  0.3663910  )
        54           Zr  tau(  54) = (  0.5357240  0.1819230  0.5991130  )
        55           Zr  tau(  55) = (  0.6936450  0.1353580  0.7999840  )
        56           Cu  tau(  56) = (  0.6996980  0.4938770  0.1236250  )
        57           Zr  tau(  57) = (  0.6154380  0.3496160  0.2608670  )
        58           Cu  tau(  58) = (  0.6163860  0.3829110  0.4899580  )
        59           Zr  tau(  59) = (  0.7406390  0.3425790  0.6748370  )
        60           Zr  tau(  60) = (  0.7412480  0.3575700  0.9376560  )
        61           Cu  tau(  61) = (  0.5350970  0.2943340  0.8319010  )
        62           Zr  tau(  62) = (  0.5219300  0.6602630  0.1802780  )
        63           Cu  tau(  63) = (  0.6764360  0.5422660  0.3511770  )
        64           Cu  tau(  64) = (  0.6518880  0.7490820  0.3811960  )
        65           Zr  tau(  65) = (  0.6685970  0.5790940  0.6194550  )
        66           Cu  tau(  66) = (  0.5727900  0.5080700  0.8178100  )
        67           Cu  tau(  67) = (  0.6643170  0.6087910  0.9696280  )
        68           Cu  tau(  68) = (  0.6453030  0.7910700  0.0288590  )
        69           Cu  tau(  69) = (  0.6369180  0.8868360  0.2400110  )
        70           Zr  tau(  70) = (  0.6303260  0.9759980  0.4397490  )
        71           Cu  tau(  71) = (  0.5295050  0.7794890  0.5795060  )
        72           Cu  tau(  72) = (  0.6242650  0.9611470  0.6522980  )
        73           Zr  tau(  73) = (  0.6264570  0.7657160  0.7858100  )
        74           Cu  tau(  74) = (  0.6866730  0.9527310  0.9360050  )
        75           Cu  tau(  75) = (  0.7980740  0.2687160  0.1298460  )
        76           Zr  tau(  76) = (  1.0111800  0.0294580  0.1891070  )
        77           Zr  tau(  77) = (  0.7674370  0.2250570  0.4300980  )
        78           Cu  tau(  78) = (  0.9704410  0.0880180  0.4356580  )
        79           Zr  tau(  79) = (  0.8233740  0.0724900  0.6018010  )
        80           Cu  tau(  80) = (  0.8934150  0.2197080  0.8001380  )
        81           Zr  tau(  81) = (  0.8687050  0.0849730  0.9774930  )
        82           Zr  tau(  82) = (  0.9982840  0.2941060  0.0350030  )
        83           Zr  tau(  83) = (  0.8616490  0.4609810  0.2520130  )
        84           Cu  tau(  84) = (  0.8132930  0.4350980  0.4791560  )
        85           Zr  tau(  85) = (  0.9981660  0.2752820  0.5806030  )
        86           Cu  tau(  86) = (  0.9756890  0.4038440  0.8175500  )
        87           Zr  tau(  87) = (  0.9133460  0.5484550  0.0248790  )
        88           Zr  tau(  88) = (  0.7753420  0.6984470  0.1916040  )
        89           Al  tau(  89) = (  1.0048900  0.6548750  0.2477300  )
        90           Zr  tau(  90) = (  0.8636860  0.6537190  0.4614320  )
        91           Cu  tau(  91) = (  0.9239290  0.4981350  0.6420570  )
        92           Cu  tau(  92) = (  0.8484040  0.7178360  0.7012020  )
        93           Cu  tau(  93) = (  0.7838010  0.5560280  0.8199790  )
        94           Cu  tau(  94) = (  0.9491700  0.8012760  0.1273720  )
        95           Cu  tau(  95) = (  0.7960670  0.9101280  0.1001260  )
        96           Zr  tau(  96) = (  0.8820060  0.8729030  0.3447760  )
        97           Zr  tau(  97) = (  0.9756070  0.8735870  0.5854800  )
        98           Cu  tau(  98) = (  0.7438140  0.8240090  0.5722210  )
        99           Cu  tau(  99) = (  0.8036460  0.9168100  0.7614030  )
       100           Zr  tau( 100) = (  0.8574510  0.7776480  0.9154230  )

     number of k points=     8  Fermi-Dirac smearing, width (Ry)=  0.0080
                       cart. coord. in units 2pi/alat
        k(    1) = (   0.2500000   0.2500000   0.1250000), wk =   0.2500000
        k(    2) = (   0.2500000   0.2500000  -0.3750000), wk =   0.2500000
        k(    3) = (   0.2500000  -0.2500000   0.3750000), wk =   0.2500000
        k(    4) = (   0.2500000  -0.2500000  -0.1250000), wk =   0.2500000
        k(    5) = (  -0.2500000   0.2500000   0.1250000), wk =   0.2500000
        k(    6) = (  -0.2500000   0.2500000  -0.3750000), wk =   0.2500000
        k(    7) = (  -0.2500000  -0.2500000   0.3750000), wk =   0.2500000
        k(    8) = (  -0.2500000  -0.2500000  -0.1250000), wk =   0.2500000

                       cryst. coord.
        k(    1) = (   0.2500000   0.2500000   0.2500000), wk =   0.2500000
        k(    2) = (   0.2500000   0.2500000  -0.2500000), wk =   0.2500000
        k(    3) = (   0.2500000  -0.2500000   0.2500000), wk =   0.2500000
        k(    4) = (   0.2500000  -0.2500000  -0.2500000), wk =   0.2500000
        k(    5) = (  -0.2500000   0.2500000   0.2500000), wk =   0.2500000
        k(    6) = (  -0.2500000   0.2500000  -0.2500000), wk =   0.2500000
        k(    7) = (  -0.2500000  -0.2500000   0.2500000), wk =   0.2500000
        k(    8) = (  -0.2500000  -0.2500000  -0.2500000), wk =   0.2500000

     Dense  grid:  2628049 G-vectors     FFT dimensions: ( 180, 180, 192)

     Smooth grid:   929093 G-vectors     FFT dimensions: ( 125, 125, 135)

     Dynamical RAM for                 wfc:      80.19 MB

     Dynamical RAM for     wfc (w. buffer):      80.19 MB

     Dynamical RAM for           str. fact:       5.01 MB

     Dynamical RAM for           local pot:       0.00 MB

     Dynamical RAM for          nlocal pot:     131.43 MB

     Dynamical RAM for                qrad:      20.58 MB

     Dynamical RAM for          rho,v,vnew:      10.95 MB

     Dynamical RAM for               rhoin:       3.65 MB

     Dynamical RAM for            rho*nmix:      26.73 MB

     Dynamical RAM for           G-vectors:       6.56 MB

     Dynamical RAM for          h,s,v(r/c):      95.98 MB

     Dynamical RAM for          <psi|beta>:      29.50 MB

     Dynamical RAM for                 psi:     320.75 MB

     Dynamical RAM for                hpsi:     320.75 MB

     Dynamical RAM for                spsi:     320.75 MB

     Dynamical RAM for      wfcinit/wfcrot:     197.10 MB

     Dynamical RAM for           addusdens:     392.65 MB

     Dynamical RAM for          addusforce:     809.93 MB

     Estimated static dynamical RAM per process >     301.67 MB

     Estimated max dynamical RAM per process >       1.36 GB

     Estimated total dynamical RAM >     260.51 GB

     Initial potential from superposition of free atoms

     starting charge 1524.87645, renormalised to 1525.00000
     Starting wfc are 1135 randomized atomic wfcs
     Checking if some PAW data can be deallocated... 
       PAW data deallocated on  188 nodes for type:  1
       PAW data deallocated on   99 nodes for type:  2
       PAW data deallocated on   97 nodes for type:  3

     total cpu time spent up to now is       40.9 secs

     Self-consistent Calculation

     iteration #  1     ecut=    70.00 Ry     beta= 0.40
     Davidson diagonalization with overlap
     ethr =  1.00E-02,  avg # of iterations =  4.0

     total cpu time spent up to now is      258.5 secs

     total energy              =  -38849.36137395 Ry
     Harris-Foulkes estimate   =  -38997.42415051 Ry
     estimated scf accuracy    <     240.34475883 Ry

     iteration #  2     ecut=    70.00 Ry     beta= 0.40
     Davidson diagonalization with overlap
     ethr =  1.00E-02,  avg # of iterations =  3.0

     total cpu time spent up to now is      491.4 secs

     total energy              =  -38876.66693796 Ry
     Harris-Foulkes estimate   =  -39168.29405284 Ry
     estimated scf accuracy    <    1502.60187028 Ry

     iteration #  3     ecut=    70.00 Ry     beta= 0.40
     Davidson diagonalization with overlap
     ethr =  1.00E-02,  avg # of iterations =  3.0

     total cpu time spent up to now is      661.7 secs

     total energy              =  -38940.06972499 Ry
     Harris-Foulkes estimate   =  -39055.37456762 Ry
     estimated scf accuracy    <     956.22050137 Ry

     iteration #  4     ecut=    70.00 Ry     beta= 0.40
     Davidson diagonalization with overlap
     ethr =  1.00E-02,  avg # of iterations =  3.0

     total cpu time spent up to now is      799.6 secs

     total energy              =  -38982.59838103 Ry
     Harris-Foulkes estimate   =  -39009.37704619 Ry
     estimated scf accuracy    <     210.20598477 Ry

     iteration #  5     ecut=    70.00 Ry     beta= 0.40
     Davidson diagonalization with overlap
     ethr =  1.00E-02,  avg # of iterations =  2.0

     total cpu time spent up to now is      912.2 secs

     total energy              =  -38986.81441058 Ry
     Harris-Foulkes estimate   =  -39000.59948663 Ry
     estimated scf accuracy    <     167.37616894 Ry

     iteration #  6     ecut=    70.00 Ry     beta= 0.40
     Davidson diagonalization with overlap
     ethr =  1.00E-02,  avg # of iterations =  1.0

     total cpu time spent up to now is     1013.0 secs

     total energy              =  -38989.06944999 Ry
     Harris-Foulkes estimate   =  -38992.06026797 Ry
     estimated scf accuracy    <      45.61713007 Ry

     iteration #  7     ecut=    70.00 Ry     beta= 0.40
     Davidson diagonalization with overlap
     ethr =  2.99E-03,  avg # of iterations =  1.0

     total cpu time spent up to now is     1114.4 secs

     total energy              =  -38987.60830126 Ry
     Harris-Foulkes estimate   =  -38990.19573915 Ry
     estimated scf accuracy    <      39.92818551 Ry

     iteration #  8     ecut=    70.00 Ry     beta= 0.40
     Davidson diagonalization with overlap
     ethr =  2.62E-03,  avg # of iterations =  1.0

     total cpu time spent up to now is     1215.5 secs

     total energy              =  -38985.93387067 Ry
     Harris-Foulkes estimate   =  -38988.41331770 Ry
     estimated scf accuracy    <      23.50973167 Ry

     iteration #  9     ecut=    70.00 Ry     beta= 0.40
     Davidson diagonalization with overlap
     ethr =  1.54E-03,  avg # of iterations =  1.0

     total cpu time spent up to now is     1316.5 secs

     total energy              =  -38985.29249376 Ry
     Harris-Foulkes estimate   =  -38986.61822581 Ry
     estimated scf accuracy    <      12.07892441 Ry

     iteration # 10     ecut=    70.00 Ry     beta= 0.40
     Davidson diagonalization with overlap
     ethr =  7.92E-04,  avg # of iterations =  1.2

     total cpu time spent up to now is     1422.3 secs

     total energy              =  -38983.88983353 Ry
     Harris-Foulkes estimate   =  -38985.87856455 Ry
     estimated scf accuracy    <       8.02747209 Ry

     iteration # 11     ecut=    70.00 Ry     beta= 0.40
     Davidson diagonalization with overlap
     ethr =  5.26E-04,  avg # of iterations =  4.2

     total cpu time spent up to now is     1580.2 secs

     total energy              =  -38983.87600379 Ry
     Harris-Foulkes estimate   =  -38986.25722093 Ry
     estimated scf accuracy    <      21.74613304 Ry

     iteration # 12     ecut=    70.00 Ry     beta= 0.40
     Davidson diagonalization with overlap
     ethr =  5.26E-04,  avg # of iterations =  2.0

     total cpu time spent up to now is     1692.5 secs

     total energy              =  -38984.66773830 Ry
     Harris-Foulkes estimate   =  -38985.68791856 Ry
     estimated scf accuracy    <      10.48170437 Ry

     iteration # 13     ecut=    70.00 Ry     beta= 0.40
     Davidson diagonalization with overlap
     ethr =  5.26E-04,  avg # of iterations =  1.0

     total cpu time spent up to now is     1793.7 secs

     total energy              =  -38985.06400991 Ry
     Harris-Foulkes estimate   =  -38985.44661062 Ry
     estimated scf accuracy    <       4.69664958 Ry

     iteration # 14     ecut=    70.00 Ry     beta= 0.40
     Davidson diagonalization with overlap
     ethr =  3.08E-04,  avg # of iterations =  1.0

     total cpu time spent up to now is     1894.5 secs

     total energy              =  -38985.20680184 Ry
     Harris-Foulkes estimate   =  -38985.27709871 Ry
     estimated scf accuracy    <       0.60152800 Ry

     iteration # 15     ecut=    70.00 Ry     beta= 0.40
     Davidson diagonalization with overlap
     ethr =  3.94E-05,  avg # of iterations =  5.5

     total cpu time spent up to now is     2068.7 secs

     total energy              =  -38985.18678111 Ry
     Harris-Foulkes estimate   =  -38985.30054204 Ry
     estimated scf accuracy    <       1.62508881 Ry

     iteration # 16     ecut=    70.00 Ry     beta= 0.40
     Davidson diagonalization with overlap
     ethr =  3.94E-05,  avg # of iterations =  3.2

     total cpu time spent up to now is     2203.8 secs

     total energy              =  -38985.21959074 Ry
     Harris-Foulkes estimate   =  -38985.27874849 Ry
     estimated scf accuracy    <       0.83545233 Ry

     iteration # 17     ecut=    70.00 Ry     beta= 0.40
     Davidson diagonalization with overlap
     ethr =  3.94E-05,  avg # of iterations =  1.2

     total cpu time spent up to now is     2315.9 secs

     total energy              =  -38985.23470585 Ry
     Harris-Foulkes estimate   =  -38985.26059622 Ry
     estimated scf accuracy    <       0.28361921 Ry

     iteration # 18     ecut=    70.00 Ry     beta= 0.40
     Davidson diagonalization with overlap
     ethr =  1.86E-05,  avg # of iterations =  2.2

     total cpu time spent up to now is     2432.8 secs

     total energy              =  -38985.23456835 Ry
     Harris-Foulkes estimate   =  -38985.25776862 Ry
     estimated scf accuracy    <       0.29734501 Ry

     iteration # 19     ecut=    70.00 Ry     beta= 0.40
     Davidson diagonalization with overlap
     ethr =  1.86E-05,  avg # of iterations =  1.2

     total cpu time spent up to now is     2539.2 secs

     total energy              =  -38985.23905475 Ry
     Harris-Foulkes estimate   =  -38985.25296550 Ry
     estimated scf accuracy    <       0.14987309 Ry

     iteration # 20     ecut=    70.00 Ry     beta= 0.40
     Davidson diagonalization with overlap
     ethr =  9.83E-06,  avg # of iterations =  1.0

     total cpu time spent up to now is     2640.1 secs

     total energy              =  -38985.23973722 Ry
     Harris-Foulkes estimate   =  -38985.24734020 Ry
     estimated scf accuracy    <       0.02635059 Ry

     iteration # 21     ecut=    70.00 Ry     beta= 0.40
     Davidson diagonalization with overlap
     ethr =  1.73E-06,  avg # of iterations =  6.0

     total cpu time spent up to now is     2836.5 secs

     total energy              =  -38985.22648421 Ry
     Harris-Foulkes estimate   =  -38985.26344056 Ry
     estimated scf accuracy    <       0.42869332 Ry

     iteration # 22     ecut=    70.00 Ry     beta= 0.40
     Davidson diagonalization with overlap
     ethr =  1.73E-06,  avg # of iterations =  5.0

     total cpu time spent up to now is     3003.4 secs

     total energy              =  -38985.24216299 Ry
     Harris-Foulkes estimate   =  -38985.24879242 Ry
     estimated scf accuracy    <       0.06059086 Ry

     iteration # 23     ecut=    70.00 Ry     beta= 0.40
     Davidson diagonalization with overlap
     ethr =  1.73E-06,  avg # of iterations =  3.8

     total cpu time spent up to now is     3140.5 secs

     total energy              =  -38985.24141125 Ry
     Harris-Foulkes estimate   =  -38985.24915758 Ry
     estimated scf accuracy    <       0.10126606 Ry

     iteration # 24     ecut=    70.00 Ry     beta= 0.40
     Davidson diagonalization with overlap
     ethr =  1.73E-06,  avg # of iterations =  3.0

     total cpu time spent up to now is     3266.3 secs

     total energy              =  -38985.24303654 Ry
     Harris-Foulkes estimate   =  -38985.24829898 Ry
     estimated scf accuracy    <       0.06362017 Ry

     iteration # 25     ecut=    70.00 Ry     beta= 0.40
     Davidson diagonalization with overlap
     ethr =  1.73E-06,  avg # of iterations =  2.0

     total cpu time spent up to now is     3378.4 secs

     total energy              =  -38985.24466400 Ry
     Harris-Foulkes estimate   =  -38985.24675192 Ry
     estimated scf accuracy    <       0.02501034 Ry

     iteration # 26     ecut=    70.00 Ry     beta= 0.40
     Davidson diagonalization with overlap
     ethr =  1.64E-06,  avg # of iterations =  1.0

     total cpu time spent up to now is     3479.3 secs

     total energy              =  -38985.24476995 Ry
     Harris-Foulkes estimate   =  -38985.24672889 Ry
     estimated scf accuracy    <       0.02770465 Ry

     iteration # 27     ecut=    70.00 Ry     beta= 0.40
     Davidson diagonalization with overlap
     ethr =  1.64E-06,  avg # of iterations =  1.0

     total cpu time spent up to now is     3580.8 secs

     total energy              =  -38985.24542076 Ry
     Harris-Foulkes estimate   =  -38985.24618411 Ry
     estimated scf accuracy    <       0.00778089 Ry

     iteration # 28     ecut=    70.00 Ry     beta= 0.40
     Davidson diagonalization with overlap
     ethr =  5.10E-07,  avg # of iterations =  1.0

     total cpu time spent up to now is     3681.9 secs

     total energy              =  -38985.24555385 Ry
     Harris-Foulkes estimate   =  -38985.24614478 Ry
     estimated scf accuracy    <       0.00818641 Ry

     iteration # 29     ecut=    70.00 Ry     beta= 0.40
     Davidson diagonalization with overlap
     ethr =  5.10E-07,  avg # of iterations =  1.0

     total cpu time spent up to now is     3782.9 secs

     total energy              =  -38985.24568165 Ry
     Harris-Foulkes estimate   =  -38985.24602771 Ry
     estimated scf accuracy    <       0.00331012 Ry

     iteration # 30     ecut=    70.00 Ry     beta= 0.40
     Davidson diagonalization with overlap
     ethr =  2.17E-07,  avg # of iterations =  1.0

     total cpu time spent up to now is     3883.8 secs

     total energy              =  -38985.24581577 Ry
     Harris-Foulkes estimate   =  -38985.24593013 Ry
     estimated scf accuracy    <       0.00098606 Ry

     iteration # 31     ecut=    70.00 Ry     beta= 0.40
     Davidson diagonalization with overlap
     ethr =  6.47E-08,  avg # of iterations =  1.0

     total cpu time spent up to now is     3985.0 secs

     total energy              =  -38985.24582549 Ry
     Harris-Foulkes estimate   =  -38985.24594057 Ry
     estimated scf accuracy    <       0.00115269 Ry

     iteration # 32     ecut=    70.00 Ry     beta= 0.40
     Davidson diagonalization with overlap
     ethr =  6.47E-08,  avg # of iterations =  1.0

     total cpu time spent up to now is     4085.9 secs

     total energy              =  -38985.24583219 Ry
     Harris-Foulkes estimate   =  -38985.24594139 Ry
     estimated scf accuracy    <       0.00112553 Ry

     iteration # 33     ecut=    70.00 Ry     beta= 0.40
     Davidson diagonalization with overlap
     ethr =  6.47E-08,  avg # of iterations =  1.0

     total cpu time spent up to now is     4187.2 secs

     total energy              =  -38985.24584526 Ry
     Harris-Foulkes estimate   =  -38985.24592816 Ry
     estimated scf accuracy    <       0.00103443 Ry

     iteration # 34     ecut=    70.00 Ry     beta= 0.40
     Davidson diagonalization with overlap
     ethr =  6.47E-08,  avg # of iterations =  1.0

     total cpu time spent up to now is     4288.0 secs

     total energy              =  -38985.24583873 Ry
     Harris-Foulkes estimate   =  -38985.24593700 Ry
     estimated scf accuracy    <       0.00111613 Ry

     iteration # 35     ecut=    70.00 Ry     beta= 0.40
     Davidson diagonalization with overlap
     ethr =  6.47E-08,  avg # of iterations =  1.0

     total cpu time spent up to now is     4388.7 secs

     total energy              =  -38985.24585556 Ry
     Harris-Foulkes estimate   =  -38985.24592835 Ry
     estimated scf accuracy    <       0.00095570 Ry

     iteration # 36     ecut=    70.00 Ry     beta= 0.40
     Davidson diagonalization with overlap
     ethr =  6.27E-08,  avg # of iterations =  1.0

     total cpu time spent up to now is     4489.4 secs

     total energy              =  -38985.24585756 Ry
     Harris-Foulkes estimate   =  -38985.24592706 Ry
     estimated scf accuracy    <       0.00097765 Ry

     iteration # 37     ecut=    70.00 Ry     beta= 0.40
     Davidson diagonalization with overlap
     ethr =  6.27E-08,  avg # of iterations =  1.0

     total cpu time spent up to now is     4590.2 secs

     total energy              =  -38985.24587573 Ry
     Harris-Foulkes estimate   =  -38985.24591495 Ry
     estimated scf accuracy    <       0.00045307 Ry

     iteration # 38     ecut=    70.00 Ry     beta= 0.40
     Davidson diagonalization with overlap
     ethr =  2.97E-08,  avg # of iterations =  1.0

     total cpu time spent up to now is     4691.4 secs

     total energy              =  -38985.24588411 Ry
     Harris-Foulkes estimate   =  -38985.24591018 Ry
     estimated scf accuracy    <       0.00036772 Ry

     iteration # 39     ecut=    70.00 Ry     beta= 0.40
     Davidson diagonalization with overlap
     ethr =  2.41E-08,  avg # of iterations =  1.0

     total cpu time spent up to now is     4792.6 secs

     total energy              =  -38985.24589189 Ry
     Harris-Foulkes estimate   =  -38985.24590200 Ry
     estimated scf accuracy    <       0.00008895 Ry

     iteration # 40     ecut=    70.00 Ry     beta= 0.40
     Davidson diagonalization with overlap
     ethr =  5.83E-09,  avg # of iterations =  1.0

     total cpu time spent up to now is     4893.3 secs

     total energy              =  -38985.24589381 Ry
     Harris-Foulkes estimate   =  -38985.24590198 Ry
     estimated scf accuracy    <       0.00008079 Ry

     iteration # 41     ecut=    70.00 Ry     beta= 0.40
     Davidson diagonalization with overlap
     ethr =  5.30E-09,  avg # of iterations =  1.0

     total cpu time spent up to now is     4994.0 secs

     total energy              =  -38985.24589531 Ry
     Harris-Foulkes estimate   =  -38985.24590162 Ry
     estimated scf accuracy    <       0.00007708 Ry

     iteration # 42     ecut=    70.00 Ry     beta= 0.40
     Davidson diagonalization with overlap
     ethr =  5.05E-09,  avg # of iterations =  1.0

     total cpu time spent up to now is     5094.7 secs

     total energy              =  -38985.24589711 Ry
     Harris-Foulkes estimate   =  -38985.24590061 Ry
     estimated scf accuracy    <       0.00003626 Ry

     iteration # 43     ecut=    70.00 Ry     beta= 0.40
     Davidson diagonalization with overlap
     ethr =  2.38E-09,  avg # of iterations =  1.0

     total cpu time spent up to now is     5195.2 secs

     total energy              =  -38985.24589813 Ry
     Harris-Foulkes estimate   =  -38985.24590006 Ry
     estimated scf accuracy    <       0.00002417 Ry

     iteration # 44     ecut=    70.00 Ry     beta= 0.40
     Davidson diagonalization with overlap
     ethr =  1.58E-09,  avg # of iterations =  1.0

     total cpu time spent up to now is     5295.8 secs

     total energy              =  -38985.24589788 Ry
     Harris-Foulkes estimate   =  -38985.24590023 Ry
     estimated scf accuracy    <       0.00002343 Ry

     iteration # 45     ecut=    70.00 Ry     beta= 0.40
     Davidson diagonalization with overlap
     ethr =  1.54E-09,  avg # of iterations =  1.0

     total cpu time spent up to now is     5396.8 secs

     total energy              =  -38985.24589713 Ry
     Harris-Foulkes estimate   =  -38985.24590137 Ry
     estimated scf accuracy    <       0.00006096 Ry

     iteration # 46     ecut=    70.00 Ry     beta= 0.40
     Davidson diagonalization with overlap
     ethr =  1.54E-09,  avg # of iterations =  1.0

     total cpu time spent up to now is     5497.6 secs

     total energy              =  -38985.24589811 Ry
     Harris-Foulkes estimate   =  -38985.24590054 Ry
     estimated scf accuracy    <       0.00003328 Ry

     iteration # 47     ecut=    70.00 Ry     beta= 0.40
     Davidson diagonalization with overlap
     ethr =  1.54E-09,  avg # of iterations =  1.0

     total cpu time spent up to now is     5598.2 secs

     total energy              =  -38985.24589851 Ry
     Harris-Foulkes estimate   =  -38985.24590034 Ry
     estimated scf accuracy    <       0.00002231 Ry

     iteration # 48     ecut=    70.00 Ry     beta= 0.40
     Davidson diagonalization with overlap
     ethr =  1.46E-09,  avg # of iterations =  1.0

     total cpu time spent up to now is     5698.9 secs

     total energy              =  -38985.24589886 Ry
     Harris-Foulkes estimate   =  -38985.24590013 Ry
     estimated scf accuracy    <       0.00001745 Ry

     iteration # 49     ecut=    70.00 Ry     beta= 0.40
     Davidson diagonalization with overlap
     ethr =  1.14E-09,  avg # of iterations =  1.0

     total cpu time spent up to now is     5799.4 secs

     total energy              =  -38985.24589926 Ry
     Harris-Foulkes estimate   =  -38985.24589977 Ry
     estimated scf accuracy    <       0.00000566 Ry

     iteration # 50     ecut=    70.00 Ry     beta= 0.40
     Davidson diagonalization with overlap
     ethr =  3.71E-10,  avg # of iterations =  1.0

     total cpu time spent up to now is     5900.2 secs

     total energy              =  -38985.24589934 Ry
     Harris-Foulkes estimate   =  -38985.24589981 Ry
     estimated scf accuracy    <       0.00000518 Ry

     iteration # 51     ecut=    70.00 Ry     beta= 0.40
     Davidson diagonalization with overlap
     ethr =  3.40E-10,  avg # of iterations =  1.0

     total cpu time spent up to now is     6000.8 secs

     total energy              =  -38985.24589944 Ry
     Harris-Foulkes estimate   =  -38985.24589978 Ry
     estimated scf accuracy    <       0.00000427 Ry

     iteration # 52     ecut=    70.00 Ry     beta= 0.40
     Davidson diagonalization with overlap
     ethr =  2.80E-10,  avg # of iterations =  1.0

     total cpu time spent up to now is     6101.3 secs

     total energy              =  -38985.24589955 Ry
     Harris-Foulkes estimate   =  -38985.24589971 Ry
     estimated scf accuracy    <       0.00000170 Ry

     iteration # 53     ecut=    70.00 Ry     beta= 0.40
     Davidson diagonalization with overlap
     ethr =  1.11E-10,  avg # of iterations =  1.0

     total cpu time spent up to now is     6201.9 secs

     total energy              =  -38985.24589960 Ry
     Harris-Foulkes estimate   =  -38985.24589970 Ry
     estimated scf accuracy    <       0.00000138 Ry

     iteration # 54     ecut=    70.00 Ry     beta= 0.40
     Davidson diagonalization with overlap
     ethr =  9.04E-11,  avg # of iterations =  1.0

     total cpu time spent up to now is     6302.5 secs

     total energy              =  -38985.24589962 Ry
     Harris-Foulkes estimate   =  -38985.24589971 Ry
     estimated scf accuracy    <       0.00000106 Ry

     iteration # 55     ecut=    70.00 Ry     beta= 0.40
     Davidson diagonalization with overlap
     ethr =  6.97E-11,  avg # of iterations =  1.0

     total cpu time spent up to now is     6403.1 secs

     total energy              =  -38985.24589960 Ry
     Harris-Foulkes estimate   =  -38985.24589975 Ry
     estimated scf accuracy    <       0.00000212 Ry

     iteration # 56     ecut=    70.00 Ry     beta= 0.40
     Davidson diagonalization with overlap
     ethr =  6.97E-11,  avg # of iterations =  1.0

     total cpu time spent up to now is     6504.1 secs

     total energy              =  -38985.24589964 Ry
     Harris-Foulkes estimate   =  -38985.24589973 Ry
     estimated scf accuracy    <       0.00000127 Ry

     iteration # 57     ecut=    70.00 Ry     beta= 0.40
     Davidson diagonalization with overlap
     ethr =  6.97E-11,  avg # of iterations =  1.0

     total cpu time spent up to now is     6604.6 secs

     End of self-consistent calculation

          k = 0.2500 0.2500 0.1250 (116137 PWs)   bands (ev):

   -99.6279 -99.3651 -99.3062 -99.1959 -99.1505 -99.1230 -99.1196 -99.0874
   -99.0552 -99.0530 -98.9609 -98.9188 -98.8806 -98.8592 -98.8589 -98.8434
   -98.7894 -98.7553 -98.7070 -98.6676 -98.6561 -98.6245 -98.6107 -98.5944
   -98.5929 -98.5891 -98.5863 -98.5708 -98.5207 -98.5120 -98.4698 -98.4679
   -98.3890 -98.3773 -98.3738 -98.3076 -98.3008 -98.2722 -98.2718 -98.2661
   -98.2536 -98.2250 -98.2137 -98.2014 -98.1948 -98.1143 -98.1107 -98.0906
   -98.0565 -57.4819 -57.1315 -57.1209 -57.0619 -56.8975 -56.8795 -56.7840
   -56.7007 -56.6951 -56.6925 -56.6893 -56.6877 -56.6125 -56.5572 -56.5456
   -56.5432 -56.5349 -56.4790 -56.4677 -56.4600 -56.4444 -56.4429 -56.4152
   -56.3720 -56.3535 -56.3506 -56.3345 -56.3262 -56.3062 -56.2978 -56.2808
   -56.2735 -56.2719 -56.2536 -56.2504 -56.2365 -56.2341 -56.2258 -56.2224
   -56.2204 -56.2006 -56.1897 -56.1745 -56.1536 -56.1502 -56.1485 -56.1415
   -56.1335 -56.1319 -56.1188 -56.1182 -56.1154 -56.1011 -56.0977 -56.0859
   -56.0842 -56.0830 -56.0744 -56.0690 -56.0678 -56.0661 -56.0544 -56.0536
   -56.0451 -56.0307 -56.0005 -55.9927 -55.9869 -55.9790 -55.9727 -55.9671
   -55.9639 -55.9503 -55.9375 -55.9232 -55.9229 -55.9194 -55.9040 -55.9022
   -55.8960 -55.8947 -55.8871 -55.8573 -55.8535 -55.8529 -55.8459 -55.8400
   -55.8153 -55.8152 -55.8126 -55.7971 -55.7775 -55.7754 -55.7709 -55.7605
   -55.7584 -55.7557 -55.7455 -55.7322 -55.7287 -55.7215 -55.7019 -55.6975
   -55.6916 -55.6911 -55.6812 -55.6777 -55.6719 -55.6699 -55.6665 -55.6653
   -55.6316 -55.6154 -55.6126 -55.6110 -55.6049 -55.5922 -55.5850 -55.5837
   -55.5822 -55.5810 -55.5780 -55.5569 -55.5473 -55.5449 -55.5412 -55.5349
   -55.5306 -55.5213 -55.5185 -55.5136 -55.5018 -55.4891 -55.4776 -55.4739
   -55.4619 -55.4607 -55.4509 -55.4501 -55.4441 -55.4277 -55.4030 -55.3818
   -55.3781 -55.3747 -55.3457 -55.3439 -34.3355 -34.2406 -34.2170 -34.2093
   -34.1146 -34.1069 -34.1048 -34.0954 -34.0919 -34.0745 -34.0682 -34.0651
   -34.0532 -34.0490 -34.0456 -34.0314 -34.0130 -34.0070 -33.9880 -33.9856
   -33.9832 -33.9531 -33.9507 -33.9366 -33.9171 -33.9154 -33.9128 -33.9101
   -33.8831 -33.8655 -33.8448 -33.8441 -33.8375 -33.8311 -33.8239 -33.8035
   -33.7991 -33.7872 -33.7674 -33.6789 -33.6785 -33.6210 -33.5405 -33.5149
   -33.4844 -33.4026 -33.3481 -33.3252 -33.2447 -13.4889 -13.3997 -13.2844
   -13.1200 -13.1033 -12.9967 -12.9007 -12.7922 -12.7214 -12.6436 -12.6335
   -12.6092 -12.5992 -12.5946 -12.5715 -12.5531 -12.5470 -12.5385 -12.5231
   -12.5141 -12.5042 -12.4991 -12.4764 -12.4674 -12.4582 -12.4445 -12.4316
   -12.4269 -12.4191 -12.3941 -12.3689 -12.3623 -12.3497 -12.3432 -12.3358
   -12.3239 -12.3159 -12.3081 -12.3030 -12.2957 -12.2813 -12.2772 -12.2683
   -12.2592 -12.2526 -12.2440 -12.2368 -12.2214 -12.2098 -12.2021 -12.1978
   -12.1895 -12.1825 -12.1724 -12.1663 -12.1588 -12.1499 -12.1476 -12.1398
   -12.1382 -12.1334 -12.1268 -12.1220 -12.1163 -12.1103 -12.1028 -12.0965
   -12.0845 -12.0750 -12.0668 -12.0580 -12.0570 -12.0453 -12.0355 -12.0186
   -12.0087 -12.0055 -12.0006 -11.9921 -11.9881 -11.9838 -11.9758 -11.9718
   -11.9699 -11.9577 -11.9500 -11.9479 -11.9363 -11.9282 -11.9174 -11.9119
   -11.9023 -11.8990 -11.8920 -11.8891 -11.8784 -11.8720 -11.8631 -11.8617
   -11.8590 -11.8508 -11.8427 -11.8338 -11.8162 -11.7996 -11.7923 -11.7844
   -11.7759 -11.7691 -11.7422 -11.7352 -11.7098 -11.6977 -11.6922 -11.6844
   -11.6615 -11.6528 -11.6496 -11.6362 -11.6225 -11.6134 -11.5886 -11.5732
   -11.5702 -11.5607 -11.5345 -11.5100 -11.4935 -11.4647 -11.4386 -11.4207
   -11.4125 -11.3967 -11.3584 -11.3421 -11.2874 -11.2589 -11.2563 -11.2427
   -11.1766 -11.0332 -10.9546 -10.9369 -10.8420 -10.7005 -10.5989 -10.4428
     7.2179   7.5292   7.7029   8.2254   8.3305   8.5100   8.6259   8.7005
     8.7742   8.8884   8.9271   9.0626   9.1210   9.1632   9.2206   9.2408
     9.2970   9.3319   9.3716   9.3781   9.4094   9.4503   9.5009   9.5215
     9.5568   9.5926   9.6234   9.6436   9.6697   9.7189   9.7370   9.7515
     9.7787   9.8164   9.8198   9.8370   9.8469   9.8634   9.8832   9.9042
     9.9093   9.9334   9.9422   9.9577   9.9813  10.0020  10.0223  10.0428
    10.0555  10.0670  10.0995  10.1034  10.1126  10.1252  10.1318  10.1501
    10.1560  10.1699  10.1856  10.1939  10.2079  10.2135  10.2234  10.2334
    10.2427  10.2514  10.2644  10.2683  10.2858  10.2958  10.3020  10.3129
    10.3228  10.3356  10.3407  10.3481  10.3574  10.3810  10.3871  10.3938
    10.3971  10.4003  10.4152  10.4280  10.4384  10.4460  10.4597  10.4646
    10.4829  10.4887  10.4974  10.5064  10.5166  10.5248  10.5367  10.5511
    10.5608  10.5638  10.5787  10.5839  10.5950  10.5978  10.6078  10.6190
    10.6294  10.6412  10.6501  10.6580  10.6646  10.6791  10.6863  10.6942
    10.7011  10.7082  10.7166  10.7263  10.7355  10.7472  10.7510  10.7642
    10.7674  10.7752  10.7861  10.7983  10.8049  10.8079  10.8126  10.8240
    10.8312  10.8374  10.8479  10.8579  10.8663  10.8753  10.8853  10.8908
    10.9003  10.9010  10.9064  10.9181  10.9223  10.9329  10.9426  10.9530
    10.9573  10.9707  10.9769  10.9795  10.9909  10.9999  11.0103  11.0159
    11.0270  11.0353  11.0394  11.0534  11.0623  11.0686  11.0706  11.0805
    11.0898  11.0966  11.1021  11.1134  11.1234  11.1342  11.1391  11.1443
    11.1515  11.1556  11.1710  11.1841  11.1982  11.1994  11.2096  11.2186
    11.2253  11.2402  11.2475  11.2539  11.2634  11.2738  11.2832  11.2901
    11.2980  11.3044  11.3151  11.3251  11.3374  11.3414  11.3453  11.3529
    11.3684  11.3709  11.3791  11.3903  11.4057  11.4199  11.4263  11.4316
    11.4382  11.4439  11.4541  11.4648  11.4682  11.4841  11.4952  11.4968
    11.5116  11.5228  11.5257  11.5379  11.5477  11.5574  11.5643  11.5743
    11.5910  11.5968  11.6067  11.6163  11.6254  11.6384  11.6474  11.6598
    11.6687  11.6799  11.6985  11.7043  11.7153  11.7279  11.7436  11.7455
    11.7678  11.7795  11.7858  11.7969  11.8028  11.8127  11.8260  11.8382
    11.8475  11.8565  11.8611  11.8863  11.8929  11.9069  11.9159  11.9303
    11.9473  11.9604  11.9737  11.9812  11.9923  12.0126  12.0296  12.0346
    12.0547  12.0661  12.0830  12.0922  12.1065  12.1163  12.1324  12.1506
    12.1638  12.1697  12.1968  12.2122  12.2205  12.2536  12.2856  12.2922
    12.3220  12.3348  12.3411  12.3735  12.4067  12.4391  12.4526  12.4782
    12.4911  12.5203  12.5526  12.5718  12.5858  12.6175  12.6695  12.6931
    12.7125  12.7449  12.7642  12.7833  12.8295  12.8481  12.8702  12.9162
    12.9379  12.9738  12.9973  13.0478  13.0900  13.1225  13.1333  13.1561
    13.1658  13.2177  13.2480  13.2675  13.2961  13.3320  13.3444  13.3793
    13.4052  13.4501  13.4638  13.4743  13.5191  13.5228  13.5514  13.5630
    13.5788  13.6257  13.6515  13.6776  13.7070  13.7174  13.7342  13.7806
    13.8177  13.8296  13.8442  13.8760  13.8972  13.9220  13.9379  13.9726
    14.0092  14.0205  14.0546  14.0674  14.0746  14.1207  14.1454  14.1764
    14.1949  14.2060  14.2236  14.2537  14.2762  14.3015  14.3191  14.3456
    14.3703  14.3841  14.4065  14.4466  14.4619  14.4796  14.5191  14.5310
    14.5443  14.5671  14.5930  14.6279  14.6473  14.6785  14.6952  14.7253
    14.7344  14.7607  14.7733  14.8012  14.8152  14.8365  14.8571  14.8877
    14.9096  14.9343  14.9470  14.9691  14.9940  15.0143  15.0360  15.0658
    15.0794  15.1152  15.1425  15.1827  15.1889  15.2049  15.2238  15.2369
    15.2775  15.3097  15.3354  15.3483  15.3660  15.3918  15.4404  15.4605
    15.4984  15.5240  15.5454  15.5668  15.5833  15.6036  15.6441  15.6652
    15.6774  15.7047  15.7426  15.7703  15.7858  15.8345  15.8594  15.8900
    15.9153  15.9292  15.9881  15.9992  16.0202  16.0741  16.0903  16.1161
    16.1383  16.1915  16.2240  16.2421  16.2492  16.2787  16.2930  16.3021
    16.3701  16.3976  16.4048  16.4305  16.4616  16.4968  16.5135  16.5487
    16.5726  16.5961  16.6251  16.6620  16.6826  16.6958  16.7568  16.7816
    16.7961  16.8242  16.8713  16.8909  16.9187  16.9364  16.9544  16.9702
    17.0194  17.0376  17.0614  17.0863  17.1168  17.1542  17.1641  17.1893
    17.2077  17.2245  17.2412  17.2589  17.2909  17.3290  17.3490  17.3912
    17.4139  17.4484  17.4678  17.5129  17.5312  17.5383  17.5629  17.5770
    17.5947  17.6244  17.6618  17.6801  17.7265  17.7515  17.7605  17.7821
    17.8006  17.8263  17.8586  17.8843  17.9140  17.9698  17.9840  18.0065
    18.0402  18.0537  18.0956  18.0990  18.1224  18.1556  18.1772  18.2066
    18.2237  18.2601  18.2787  18.3007  18.3248  18.3580  18.3910  18.4096
    18.4239  18.4619  18.4844  18.5132  18.5449  18.5727  18.5993  18.6261
    18.6338  18.6797  18.7118  18.7471  18.8019  18.8416  18.8795  18.9029
    18.9149  18.9440  18.9850  18.9970  19.0331  19.0539  19.1087  19.1355
    19.1613  19.1813  19.2360  19.2611  19.2962  19.3263  19.3714  19.3839
    19.4302  19.4781  19.5250  19.5659  19.5822  19.6366  19.6636  19.6936
    19.7093  19.7317  19.7948  19.8150  19.8526  19.8988  19.9305  20.0030
    20.0256  20.0462  20.0988  20.1370  20.2033  20.2156  20.2385  20.3176
    20.3747  20.3989  20.4468  20.4558  20.4891  20.5348  20.6250  20.6331
    20.6874  20.7046  20.7645  20.8072  20.8416  20.9176  20.9391  21.0014
    21.0658  21.0799  21.1695  21.1988  21.2420  21.2680  21.3320  21.3653
    21.4323  21.4744  21.5093  21.5622  21.6062  21.6593  21.6907  21.7242
    21.7722  21.8372  21.8877  21.9285  21.9610  22.0241  22.0681  22.1019
    22.1434  22.1751  22.2412  22.2981  22.3281  22.3657  22.4243  22.4452
    22.5045  22.5652  22.6074  22.6413  22.6783  22.7589  22.7893  22.8022
    22.8744  22.8914  22.9536  23.0131  23.0454  23.0646  23.1051  23.1993
    23.2464  23.2748  23.3014  23.3377  23.3579  23.4124  23.4626  23.5130
    23.5819  23.6130  23.6518  23.6823  23.7312  23.7697  23.8053  23.8613
    23.9357  23.9704  24.0159  24.0430  24.0757  24.1398  24.1605  24.1869
    24.2505  24.2706  24.3344  24.3621  24.4117  24.4422  24.5023  24.5165
    24.5640  24.6388  24.6873  24.7320  24.7551  24.8052  24.8344  24.8583
    24.8825  24.8965  24.9796  25.0193  25.0706  25.1147  25.1472  25.1970
    25.2350  25.2717  25.3285  25.3638  25.3796  25.4323  25.5050  25.5171
    25.5338  25.5970  25.6327  25.6661  25.7076  25.7741

     occupation numbers 
     1.0000   1.0000   1.0000   1.0000   1.0000   1.0000   1.0000   1.0000
     1.0000   1.0000   1.0000   1.0000   1.0000   1.0000   1.0000   1.0000
     1.0000   1.0000   1.0000   1.0000   1.0000   1.0000   1.0000   1.0000
     1.0000   1.0000   1.0000   1.0000   1.0000   1.0000   1.0000   1.0000
     1.0000   1.0000   1.0000   1.0000   1.0000   1.0000   1.0000   1.0000
     1.0000   1.0000   1.0000   1.0000   1.0000   1.0000   1.0000   1.0000
     1.0000   1.0000   1.0000   1.0000   1.0000   1.0000   1.0000   1.0000
     1.0000   1.0000   1.0000   1.0000   1.0000   1.0000   1.0000   1.0000
     1.0000   1.0000   1.0000   1.0000   1.0000   1.0000   1.0000   1.0000
     1.0000   1.0000   1.0000   1.0000   1.0000   1.0000   1.0000   1.0000
     1.0000   1.0000   1.0000   1.0000   1.0000   1.0000   1.0000   1.0000
     1.0000   1.0000   1.0000   1.0000   1.0000   1.0000   1.0000   1.0000
     1.0000   1.0000   1.0000   1.0000   1.0000   1.0000   1.0000   1.0000
     1.0000   1.0000   1.0000   1.0000   1.0000   1.0000   1.0000   1.0000
     1.0000   1.0000   1.0000   1.0000   1.0000   1.0000   1.0000   1.0000
     1.0000   1.0000   1.0000   1.0000   1.0000   1.0000   1.0000   1.0000
     1.0000   1.0000   1.0000   1.0000   1.0000   1.0000   1.0000   1.0000
     1.0000   1.0000   1.0000   1.0000   1.0000   1.0000   1.0000   1.0000
     1.0000   1.0000   1.0000   1.0000   1.0000   1.0000   1.0000   1.0000
     1.0000   1.0000   1.0000   1.0000   1.0000   1.0000   1.0000   1.0000
     1.0000   1.0000   1.0000   1.0000   1.0000   1.0000   1.0000   1.0000
     1.0000   1.0000   1.0000   1.0000   1.0000   1.0000   1.0000   1.0000
     1.0000   1.0000   1.0000   1.0000   1.0000   1.0000   1.0000   1.0000
     1.0000   1.0000   1.0000   1.0000   1.0000   1.0000   1.0000   1.0000
     1.0000   1.0000   1.0000   1.0000   1.0000   1.0000   1.0000   1.0000
     1.0000   1.0000   1.0000   1.0000   1.0000   1.0000   1.0000   1.0000
     1.0000   1.0000   1.0000   1.0000   1.0000   1.0000   1.0000   1.0000
     1.0000   1.0000   1.0000   1.0000   1.0000   1.0000   1.0000   1.0000
     1.0000   1.0000   1.0000   1.0000   1.0000   1.0000   1.0000   1.0000
     1.0000   1.0000   1.0000   1.0000   1.0000   1.0000   1.0000   1.0000
     1.0000   1.0000   1.0000   1.0000   1.0000   1.0000   1.0000   1.0000
     1.0000   1.0000   1.0000   1.0000   1.0000   1.0000   1.0000   1.0000
     1.0000   1.0000   1.0000   1.0000   1.0000   1.0000   1.0000   1.0000
     1.0000   1.0000   1.0000   1.0000   1.0000   1.0000   1.0000   1.0000
     1.0000   1.0000   1.0000   1.0000   1.0000   1.0000   1.0000   1.0000
     1.0000   1.0000   1.0000   1.0000   1.0000   1.0000   1.0000   1.0000
     1.0000   1.0000   1.0000   1.0000   1.0000   1.0000   1.0000   1.0000
     1.0000   1.0000   1.0000   1.0000   1.0000   1.0000   1.0000   1.0000
     1.0000   1.0000   1.0000   1.0000   1.0000   1.0000   1.0000   1.0000
     1.0000   1.0000   1.0000   1.0000   1.0000   1.0000   1.0000   1.0000
     1.0000   1.0000   1.0000   1.0000   1.0000   1.0000   1.0000   1.0000
     1.0000   1.0000   1.0000   1.0000   1.0000   1.0000   1.0000   1.0000
     1.0000   1.0000   1.0000   1.0000   1.0000   1.0000   1.0000   1.0000
     1.0000   1.0000   1.0000   1.0000   1.0000   1.0000   1.0000   1.0000
     1.0000   1.0000   1.0000   1.0000   1.0000   1.0000   1.0000   1.0000
     1.0000   1.0000   1.0000   1.0000   1.0000   1.0000   1.0000   1.0000
     1.0000   1.0000   1.0000   1.0000   1.0000   1.0000   1.0000   1.0000
     1.0000   1.0000   1.0000   1.0000   1.0000   1.0000   1.0000   1.0000
     1.0000   1.0000   1.0000   1.0000   1.0000   1.0000   1.0000   1.0000
     1.0000   1.0000   1.0000   1.0000   1.0000   1.0000   1.0000   1.0000
     1.0000   1.0000   1.0000   1.0000   1.0000   1.0000   1.0000   1.0000
     1.0000   1.0000   1.0000   1.0000   1.0000   1.0000   1.0000   1.0000
     1.0000   1.0000   1.0000   1.0000   1.0000   1.0000   1.0000   1.0000
     1.0000   1.0000   1.0000   1.0000   1.0000   1.0000   1.0000   1.0000
     1.0000   1.0000   1.0000   1.0000   1.0000   1.0000   1.0000   1.0000
     1.0000   1.0000   1.0000   1.0000   1.0000   1.0000   1.0000   1.0000
     1.0000   1.0000   1.0000   1.0000   1.0000   1.0000   1.0000   1.0000
     1.0000   1.0000   1.0000   1.0000   1.0000   1.0000   1.0000   1.0000
     1.0000   1.0000   1.0000   1.0000   1.0000   1.0000   1.0000   1.0000
     1.0000   1.0000   1.0000   1.0000   1.0000   1.0000   1.0000   1.0000
     1.0000   1.0000   1.0000   1.0000   1.0000   1.0000   1.0000   1.0000
     1.0000   1.0000   1.0000   1.0000   1.0000   1.0000   1.0000   1.0000
     1.0000   1.0000   1.0000   1.0000   1.0000   1.0000   1.0000   1.0000
     1.0000   1.0000   1.0000   1.0000   1.0000   1.0000   1.0000   1.0000
     1.0000   1.0000   1.0000   1.0000   1.0000   1.0000   1.0000   1.0000
     1.0000   1.0000   1.0000   1.0000   1.0000   1.0000   1.0000   1.0000
     1.0000   1.0000   1.0000   1.0000   1.0000   1.0000   1.0000   1.0000
     1.0000   1.0000   1.0000   1.0000   1.0000   1.0000   1.0000   1.0000
     1.0000   1.0000   1.0000   1.0000   1.0000   1.0000   1.0000   1.0000
     1.0000   1.0000   1.0000   1.0000   1.0000   1.0000   1.0000   1.0000
     1.0000   1.0000   1.0000   1.0000   1.0000   1.0000   1.0000   1.0000
     1.0000   1.0000   1.0000   1.0000   1.0000   1.0000   1.0000   1.0000
     1.0000   1.0000   1.0000   1.0000   1.0000   1.0000   1.0000   1.0000
     1.0000   1.0000   1.0000   1.0000   1.0000   1.0000   1.0000   1.0000
     1.0000   1.0000   1.0000   1.0000   1.0000   1.0000   1.0000   1.0000
     1.0000   1.0000   1.0000   1.0000   1.0000   1.0000   1.0000   1.0000
     1.0000   1.0000   1.0000   1.0000   1.0000   1.0000   1.0000   1.0000
     1.0000   1.0000   1.0000   1.0000   1.0000   1.0000   1.0000   1.0000
     1.0000   1.0000   1.0000   1.0000   1.0000   1.0000   1.0000   1.0000
     1.0000   1.0000   1.0000   1.0000   1.0000   1.0000   1.0000   1.0000
     1.0000   1.0000   1.0000   1.0000   1.0000   1.0000   1.0000   1.0000
     1.0000   1.0000   1.0000   1.0000   1.0000   1.0000   1.0000   1.0000
     1.0000   1.0000   1.0000   1.0000   1.0000   1.0000   1.0000   1.0000
     1.0000   1.0000   1.0000   1.0000   1.0000   1.0000   1.0000   1.0000
     1.0000   1.0000   1.0000   1.0000   1.0000   1.0000   1.0000   1.0000
     1.0000   1.0000   1.0000   1.0000   1.0000   1.0000   1.0000   1.0000
     1.0000   1.0000   1.0000   1.0000   1.0000   1.0000   1.0000   1.0000
     1.0000   1.0000   1.0000   1.0000   1.0000   1.0000   1.0000   1.0000
     1.0000   1.0000   1.0000   1.0000   1.0000   1.0000   1.0000   1.0000
     1.0000   1.0000   1.0000   1.0000   0.9999   0.9999   0.9999   0.9999
     0.9998   0.9998   0.9998   0.9997   0.9997   0.9996   0.9995   0.9993
     0.9991   0.9990   0.9986   0.9984   0.9983   0.9975   0.9968   0.9958
     0.9950   0.9945   0.9935   0.9915   0.9895   0.9868   0.9846   0.9804
     0.9755   0.9723   0.9662   0.9518   0.9449   0.9358   0.9103   0.9009
     0.8895   0.8672   0.8372   0.7888   0.7575   0.7011   0.6681   0.6042
     0.5839   0.5242   0.4954   0.4317   0.4006   0.3545   0.3125   0.2554
     0.2192   0.1828   0.1659   0.1398   0.1145   0.0969   0.0808   0.0626
     0.0557   0.0407   0.0320   0.0223   0.0211   0.0183   0.0154   0.0137
     0.0095   0.0071   0.0056   0.0050   0.0042   0.0033   0.0021   0.0018
     0.0013   0.0010   0.0008   0.0007   0.0006   0.0005   0.0003   0.0003
     0.0002   0.0002   0.0001   0.0001   0.0001   0.0001   0.0000   0.0000
     0.0000   0.0000   0.0000   0.0000   0.0000   0.0000   0.0000   0.0000
     0.0000   0.0000   0.0000   0.0000   0.0000   0.0000   0.0000   0.0000
     0.0000   0.0000   0.0000   0.0000   0.0000   0.0000   0.0000   0.0000
     0.0000   0.0000   0.0000   0.0000   0.0000   0.0000   0.0000   0.0000
     0.0000   0.0000   0.0000   0.0000   0.0000   0.0000   0.0000   0.0000
     0.0000   0.0000   0.0000   0.0000   0.0000   0.0000   0.0000   0.0000
     0.0000   0.0000   0.0000   0.0000   0.0000   0.0000   0.0000   0.0000
     0.0000   0.0000   0.0000   0.0000   0.0000   0.0000   0.0000   0.0000
     0.0000   0.0000   0.0000   0.0000   0.0000   0.0000   0.0000   0.0000
     0.0000   0.0000   0.0000   0.0000   0.0000   0.0000   0.0000   0.0000
     0.0000   0.0000   0.0000   0.0000   0.0000   0.0000   0.0000   0.0000
     0.0000   0.0000   0.0000   0.0000   0.0000   0.0000   0.0000   0.0000
     0.0000   0.0000   0.0000   0.0000   0.0000   0.0000   0.0000   0.0000
     0.0000   0.0000   0.0000   0.0000   0.0000   0.0000   0.0000   0.0000
     0.0000   0.0000   0.0000   0.0000   0.0000   0.0000   0.0000   0.0000
     0.0000   0.0000   0.0000   0.0000   0.0000   0.0000   0.0000   0.0000
     0.0000   0.0000   0.0000   0.0000   0.0000   0.0000   0.0000   0.0000
     0.0000   0.0000   0.0000   0.0000   0.0000   0.0000   0.0000   0.0000
     0.0000   0.0000   0.0000   0.0000   0.0000   0.0000   0.0000   0.0000
     0.0000   0.0000   0.0000   0.0000   0.0000   0.0000   0.0000   0.0000
     0.0000   0.0000   0.0000   0.0000   0.0000   0.0000   0.0000   0.0000
     0.0000   0.0000   0.0000   0.0000   0.0000   0.0000   0.0000   0.0000
     0.0000   0.0000   0.0000   0.0000   0.0000   0.0000   0.0000   0.0000
     0.0000   0.0000   0.0000   0.0000   0.0000   0.0000   0.0000   0.0000
     0.0000   0.0000   0.0000   0.0000   0.0000   0.0000   0.0000   0.0000
     0.0000   0.0000   0.0000   0.0000   0.0000   0.0000   0.0000   0.0000
     0.0000   0.0000   0.0000   0.0000   0.0000   0.0000   0.0000   0.0000
     0.0000   0.0000   0.0000   0.0000   0.0000   0.0000   0.0000   0.0000
     0.0000   0.0000   0.0000   0.0000   0.0000   0.0000   0.0000   0.0000
     0.0000   0.0000   0.0000   0.0000   0.0000   0.0000   0.0000   0.0000
     0.0000   0.0000   0.0000   0.0000   0.0000   0.0000   0.0000   0.0000
     0.0000   0.0000   0.0000   0.0000   0.0000   0.0000   0.0000   0.0000
     0.0000   0.0000   0.0000   0.0000   0.0000   0.0000   0.0000   0.0000
     0.0000   0.0000   0.0000   0.0000   0.0000   0.0000   0.0000   0.0000
     0.0000   0.0000   0.0000   0.0000   0.0000   0.0000

          k = 0.2500 0.2500-0.3750 (116150 PWs)   bands (ev):

   -99.6279 -99.3651 -99.3062 -99.1959 -99.1505 -99.1230 -99.1196 -99.0874
   -99.0552 -99.0530 -98.9609 -98.9188 -98.8806 -98.8592 -98.8589 -98.8434
   -98.7894 -98.7553 -98.7070 -98.6676 -98.6561 -98.6245 -98.6107 -98.5944
   -98.5929 -98.5891 -98.5863 -98.5708 -98.5207 -98.5120 -98.4698 -98.4679
   -98.3890 -98.3773 -98.3738 -98.3076 -98.3008 -98.2722 -98.2718 -98.2661
   -98.2536 -98.2250 -98.2137 -98.2014 -98.1948 -98.1143 -98.1107 -98.0906
   -98.0565 -57.4819 -57.1315 -57.1209 -57.0619 -56.8975 -56.8795 -56.7840
   -56.7007 -56.6951 -56.6925 -56.6893 -56.6877 -56.6125 -56.5572 -56.5456
   -56.5432 -56.5349 -56.4790 -56.4677 -56.4600 -56.4444 -56.4429 -56.4153
   -56.3720 -56.3535 -56.3506 -56.3345 -56.3262 -56.3062 -56.2978 -56.2808
   -56.2735 -56.2719 -56.2536 -56.2504 -56.2365 -56.2341 -56.2258 -56.2224
   -56.2204 -56.2006 -56.1897 -56.1745 -56.1536 -56.1502 -56.1485 -56.1415
   -56.1335 -56.1319 -56.1188 -56.1182 -56.1154 -56.1011 -56.0977 -56.0859
   -56.0842 -56.0830 -56.0744 -56.0690 -56.0678 -56.0661 -56.0544 -56.0536
   -56.0451 -56.0307 -56.0006 -55.9927 -55.9869 -55.9790 -55.9727 -55.9671
   -55.9639 -55.9503 -55.9375 -55.9232 -55.9229 -55.9194 -55.9040 -55.9022
   -55.8960 -55.8947 -55.8872 -55.8573 -55.8535 -55.8529 -55.8459 -55.8400
   -55.8153 -55.8152 -55.8126 -55.7971 -55.7775 -55.7754 -55.7709 -55.7605
   -55.7584 -55.7557 -55.7455 -55.7322 -55.7287 -55.7215 -55.7019 -55.6975
   -55.6916 -55.6911 -55.6812 -55.6777 -55.6719 -55.6699 -55.6665 -55.6653
   -55.6316 -55.6154 -55.6126 -55.6110 -55.6049 -55.5922 -55.5850 -55.5837
   -55.5822 -55.5810 -55.5780 -55.5569 -55.5473 -55.5449 -55.5412 -55.5349
   -55.5306 -55.5213 -55.5186 -55.5136 -55.5018 -55.4891 -55.4776 -55.4739
   -55.4619 -55.4607 -55.4508 -55.4501 -55.4441 -55.4277 -55.4030 -55.3818
   -55.3781 -55.3747 -55.3457 -55.3439 -34.3355 -34.2406 -34.2170 -34.2093
   -34.1146 -34.1062 -34.1049 -34.0962 -34.0919 -34.0746 -34.0680 -34.0652
   -34.0528 -34.0490 -34.0457 -34.0317 -34.0128 -34.0065 -33.9894 -33.9859
   -33.9834 -33.9528 -33.9506 -33.9364 -33.9191 -33.9153 -33.9112 -33.9073
   -33.8830 -33.8653 -33.8451 -33.8443 -33.8417 -33.8301 -33.8241 -33.8007
   -33.7993 -33.7877 -33.7675 -33.6789 -33.6785 -33.6210 -33.5405 -33.5149
   -33.4844 -33.4026 -33.3481 -33.3252 -33.2447 -13.4891 -13.3996 -13.2845
   -13.1202 -13.1034 -12.9968 -12.8999 -12.7916 -12.7215 -12.6427 -12.6327
   -12.6082 -12.5988 -12.5942 -12.5756 -12.5551 -12.5418 -12.5395 -12.5253
   -12.5145 -12.5052 -12.4995 -12.4744 -12.4641 -12.4599 -12.4453 -12.4311
   -12.4276 -12.4189 -12.3928 -12.3685 -12.3612 -12.3522 -12.3390 -12.3352
   -12.3213 -12.3174 -12.3123 -12.3052 -12.2901 -12.2835 -12.2772 -12.2717
   -12.2587 -12.2546 -12.2506 -12.2323 -12.2202 -12.2103 -12.1997 -12.1975
   -12.1899 -12.1817 -12.1739 -12.1674 -12.1611 -12.1551 -12.1477 -12.1430
   -12.1381 -12.1333 -12.1266 -12.1206 -12.1188 -12.1085 -12.1003 -12.0932
   -12.0829 -12.0773 -12.0660 -12.0600 -12.0488 -12.0444 -12.0338 -12.0168
   -12.0092 -12.0023 -12.0009 -11.9974 -11.9913 -11.9854 -11.9733 -11.9702
   -11.9664 -11.9593 -11.9519 -11.9423 -11.9397 -11.9324 -11.9179 -11.9095
   -11.9076 -11.9018 -11.8930 -11.8857 -11.8773 -11.8709 -11.8686 -11.8598
   -11.8533 -11.8464 -11.8428 -11.8355 -11.8202 -11.8013 -11.7926 -11.7868
   -11.7779 -11.7685 -11.7420 -11.7301 -11.7092 -11.6981 -11.6903 -11.6783
   -11.6610 -11.6561 -11.6467 -11.6378 -11.6210 -11.6170 -11.5919 -11.5741
   -11.5705 -11.5601 -11.5350 -11.5098 -11.4953 -11.4646 -11.4345 -11.4232
   -11.4132 -11.3922 -11.3579 -11.3425 -11.2899 -11.2602 -11.2554 -11.2462
   -11.1725 -11.0330 -10.9548 -10.9371 -10.8420 -10.7005 -10.5989 -10.4430
     7.2724   7.5411   7.6553   8.1511   8.3235   8.4180   8.5502   8.7015
     8.8060   8.9628   9.0142   9.0871   9.1479   9.1725   9.2232   9.2710
     9.3026   9.3267   9.3621   9.4142   9.4414   9.4702   9.4925   9.5238
     9.5592   9.6081   9.6135   9.6391   9.6665   9.6934   9.7207   9.7305
     9.7517   9.8037   9.8276   9.8412   9.8578   9.8669   9.8761   9.9009
     9.9157   9.9296   9.9398   9.9669   9.9754   9.9984  10.0141  10.0322
    10.0493  10.0625  10.0862  10.1052  10.1163  10.1329  10.1420  10.1507
    10.1577  10.1652  10.1886  10.1949  10.2104  10.2138  10.2216  10.2403
    10.2519  10.2558  10.2680  10.2743  10.2888  10.2966  10.2985  10.3055
    10.3224  10.3378  10.3458  10.3570  10.3653  10.3737  10.3755  10.3958
    10.4045  10.4121  10.4248  10.4309  10.4362  10.4499  10.4615  10.4664
    10.4761  10.4838  10.5022  10.5090  10.5210  10.5286  10.5379  10.5467
    10.5545  10.5641  10.5734  10.5857  10.5953  10.6032  10.6162  10.6244
    10.6308  10.6466  10.6504  10.6591  10.6722  10.6760  10.6896  10.6930
    10.7018  10.7084  10.7173  10.7280  10.7371  10.7481  10.7537  10.7633
    10.7709  10.7803  10.7830  10.7936  10.8046  10.8066  10.8166  10.8270
    10.8320  10.8389  10.8499  10.8552  10.8624  10.8728  10.8815  10.8875
    10.8942  10.9040  10.9102  10.9167  10.9258  10.9367  10.9414  10.9459
    10.9564  10.9645  10.9722  10.9830  10.9899  10.9975  11.0076  11.0115
    11.0196  11.0243  11.0365  11.0483  11.0570  11.0667  11.0741  11.0792
    11.0836  11.0946  11.1040  11.1184  11.1254  11.1299  11.1382  11.1459
    11.1537  11.1658  11.1725  11.1791  11.1880  11.1998  11.2053  11.2125
    11.2214  11.2356  11.2382  11.2476  11.2575  11.2622  11.2774  11.2886
    11.2923  11.3071  11.3119  11.3249  11.3279  11.3353  11.3452  11.3553
    11.3637  11.3790  11.3811  11.3865  11.3976  11.4107  11.4169  11.4317
    11.4385  11.4443  11.4563  11.4668  11.4703  11.4799  11.4901  11.4946
    11.5041  11.5215  11.5281  11.5334  11.5401  11.5563  11.5609  11.5696
    11.5860  11.5970  11.6105  11.6233  11.6292  11.6331  11.6541  11.6583
    11.6731  11.6824  11.6914  11.7068  11.7191  11.7283  11.7427  11.7535
    11.7609  11.7673  11.7788  11.7938  11.8028  11.8182  11.8288  11.8386
    11.8550  11.8607  11.8693  11.8867  11.9049  11.9100  11.9224  11.9319
    11.9443  11.9560  11.9718  11.9820  11.9931  12.0123  12.0185  12.0358
    12.0482  12.0602  12.0704  12.0906  12.1102  12.1154  12.1319  12.1373
    12.1551  12.1725  12.1866  12.2006  12.2402  12.2553  12.2783  12.3049
    12.3272  12.3368  12.3557  12.3675  12.3972  12.4140  12.4511  12.4803
    12.4918  12.5189  12.5328  12.5784  12.6088  12.6128  12.6654  12.6858
    12.7353  12.7430  12.7692  12.7977  12.8440  12.8692  12.8871  12.9328
    12.9559  12.9770  13.0100  13.0396  13.0611  13.0762  13.1316  13.1671
    13.1943  13.2214  13.2456  13.2645  13.3050  13.3440  13.3588  13.3794
    13.4121  13.4275  13.4592  13.4823  13.4904  13.5152  13.5436  13.5873
    13.5994  13.6307  13.6494  13.6826  13.6951  13.7366  13.7616  13.7804
    13.7868  13.8312  13.8562  13.8713  13.9087  13.9296  13.9537  13.9877
    14.0059  14.0203  14.0717  14.0801  14.0938  14.1229  14.1436  14.1659
    14.1920  14.2024  14.2219  14.2500  14.2778  14.2828  14.3117  14.3378
    14.3746  14.3940  14.4082  14.4233  14.4391  14.4722  14.5000  14.5115
    14.5379  14.5631  14.5870  14.6205  14.6374  14.6605  14.6777  14.6982
    14.7360  14.7429  14.7702  14.7769  14.8027  14.8313  14.8656  14.8862
    14.9009  14.9147  14.9415  14.9597  14.9752  14.9938  15.0213  15.0577
    15.0907  15.1063  15.1478  15.1594  15.1913  15.2077  15.2389  15.2568
    15.2908  15.3142  15.3262  15.3547  15.3742  15.4064  15.4325  15.4515
    15.4915  15.5198  15.5424  15.5856  15.6100  15.6314  15.6581  15.6663
    15.7221  15.7400  15.7659  15.8047  15.8326  15.8584  15.8675  15.8994
    15.9100  15.9528  15.9784  16.0102  16.0346  16.0481  16.0677  16.1174
    16.1572  16.1749  16.2046  16.2325  16.2685  16.2886  16.3134  16.3310
    16.3616  16.4006  16.4088  16.4433  16.4759  16.5080  16.5259  16.5424
    16.5616  16.5858  16.6232  16.6550  16.7044  16.7096  16.7448  16.7784
    16.7890  16.8242  16.8476  16.8523  16.8997  16.9118  16.9572  16.9865
    17.0048  17.0186  17.0597  17.0810  17.1108  17.1394  17.1656  17.1957
    17.2053  17.2305  17.2560  17.2847  17.3026  17.3299  17.3515  17.3784
    17.4089  17.4373  17.4657  17.4889  17.5331  17.5528  17.5662  17.5910
    17.6189  17.6524  17.6788  17.7067  17.7138  17.7284  17.7637  17.7782
    17.8255  17.8477  17.8575  17.9042  17.9253  17.9573  17.9818  17.9943
    18.0231  18.0264  18.0654  18.1125  18.1385  18.1539  18.1680  18.2083
    18.2236  18.2357  18.2752  18.3089  18.3414  18.3653  18.3835  18.4156
    18.4442  18.4724  18.4943  18.5444  18.5751  18.5897  18.6241  18.6486
    18.6649  18.7037  18.7362  18.7586  18.7814  18.8179  18.8447  18.8715
    18.8866  18.9146  18.9529  18.9730  19.0273  19.0616  19.1067  19.1336
    19.1552  19.1842  19.2261  19.2526  19.2908  19.3149  19.3359  19.3631
    19.4017  19.4197  19.4573  19.5305  19.5671  19.5984  19.6410  19.6795
    19.7013  19.7391  19.7962  19.8290  19.8572  19.9072  19.9204  20.0105
    20.0341  20.0468  20.0759  20.1520  20.1723  20.2317  20.2668  20.3072
    20.3437  20.4007  20.4149  20.4542  20.5301  20.5566  20.5882  20.6550
    20.7060  20.7317  20.7842  20.8062  20.8492  20.9322  20.9536  20.9873
    21.0435  21.0942  21.1313  21.1664  21.2159  21.2684  21.3288  21.3919
    21.4176  21.4548  21.4695  21.5440  21.5816  21.6362  21.6511  21.7422
    21.7791  21.8055  21.9079  21.9664  21.9909  22.0523  22.0952  22.1320
    22.1572  22.1806  22.2369  22.2862  22.3463  22.3978  22.4488  22.4883
    22.5405  22.5874  22.6212  22.6574  22.7074  22.7622  22.7984  22.8372
    22.9088  22.9259  22.9805  22.9875  23.0341  23.0757  23.1437  23.2218
    23.2373  23.2633  23.3298  23.3865  23.4383  23.4786  23.5066  23.5396
    23.5809  23.6525  23.6866  23.7097  23.7374  23.7824  23.8254  23.8721
    23.9008  23.9214  23.9919  24.0255  24.0621  24.1074  24.1392  24.1798
    24.2290  24.2449  24.2841  24.3770  24.4266  24.4640  24.4800  24.5429
    24.5685  24.5875  24.6472  24.6869  24.7300  24.7560  24.8245  24.8753
    24.9083  24.9387  25.0008  25.0234  25.0831  25.0986  25.1359  25.1685
    25.2191  25.2580  25.2947  25.3481  25.3790  25.4057  25.4462  25.4675
    25.5371  25.5827  25.6093  25.6426  25.6789  25.7410

     occupation numbers 
     1.0000   1.0000   1.0000   1.0000   1.0000   1.0000   1.0000   1.0000
     1.0000   1.0000   1.0000   1.0000   1.0000   1.0000   1.0000   1.0000
     1.0000   1.0000   1.0000   1.0000   1.0000   1.0000   1.0000   1.0000
     1.0000   1.0000   1.0000   1.0000   1.0000   1.0000   1.0000   1.0000
     1.0000   1.0000   1.0000   1.0000   1.0000   1.0000   1.0000   1.0000
     1.0000   1.0000   1.0000   1.0000   1.0000   1.0000   1.0000   1.0000
     1.0000   1.0000   1.0000   1.0000   1.0000   1.0000   1.0000   1.0000
     1.0000   1.0000   1.0000   1.0000   1.0000   1.0000   1.0000   1.0000
     1.0000   1.0000   1.0000   1.0000   1.0000   1.0000   1.0000   1.0000
     1.0000   1.0000   1.0000   1.0000   1.0000   1.0000   1.0000   1.0000
     1.0000   1.0000   1.0000   1.0000   1.0000   1.0000   1.0000   1.0000
     1.0000   1.0000   1.0000   1.0000   1.0000   1.0000   1.0000   1.0000
     1.0000   1.0000   1.0000   1.0000   1.0000   1.0000   1.0000   1.0000
     1.0000   1.0000   1.0000   1.0000   1.0000   1.0000   1.0000   1.0000
     1.0000   1.0000   1.0000   1.0000   1.0000   1.0000   1.0000   1.0000
     1.0000   1.0000   1.0000   1.0000   1.0000   1.0000   1.0000   1.0000
     1.0000   1.0000   1.0000   1.0000   1.0000   1.0000   1.0000   1.0000
     1.0000   1.0000   1.0000   1.0000   1.0000   1.0000   1.0000   1.0000
     1.0000   1.0000   1.0000   1.0000   1.0000   1.0000   1.0000   1.0000
     1.0000   1.0000   1.0000   1.0000   1.0000   1.0000   1.0000   1.0000
     1.0000   1.0000   1.0000   1.0000   1.0000   1.0000   1.0000   1.0000
     1.0000   1.0000   1.0000   1.0000   1.0000   1.0000   1.0000   1.0000
     1.0000   1.0000   1.0000   1.0000   1.0000   1.0000   1.0000   1.0000
     1.0000   1.0000   1.0000   1.0000   1.0000   1.0000   1.0000   1.0000
     1.0000   1.0000   1.0000   1.0000   1.0000   1.0000   1.0000   1.0000
     1.0000   1.0000   1.0000   1.0000   1.0000   1.0000   1.0000   1.0000
     1.0000   1.0000   1.0000   1.0000   1.0000   1.0000   1.0000   1.0000
     1.0000   1.0000   1.0000   1.0000   1.0000   1.0000   1.0000   1.0000
     1.0000   1.0000   1.0000   1.0000   1.0000   1.0000   1.0000   1.0000
     1.0000   1.0000   1.0000   1.0000   1.0000   1.0000   1.0000   1.0000
     1.0000   1.0000   1.0000   1.0000   1.0000   1.0000   1.0000   1.0000
     1.0000   1.0000   1.0000   1.0000   1.0000   1.0000   1.0000   1.0000
     1.0000   1.0000   1.0000   1.0000   1.0000   1.0000   1.0000   1.0000
     1.0000   1.0000   1.0000   1.0000   1.0000   1.0000   1.0000   1.0000
     1.0000   1.0000   1.0000   1.0000   1.0000   1.0000   1.0000   1.0000
     1.0000   1.0000   1.0000   1.0000   1.0000   1.0000   1.0000   1.0000
     1.0000   1.0000   1.0000   1.0000   1.0000   1.0000   1.0000   1.0000
     1.0000   1.0000   1.0000   1.0000   1.0000   1.0000   1.0000   1.0000
     1.0000   1.0000   1.0000   1.0000   1.0000   1.0000   1.0000   1.0000
     1.0000   1.0000   1.0000   1.0000   1.0000   1.0000   1.0000   1.0000
     1.0000   1.0000   1.0000   1.0000   1.0000   1.0000   1.0000   1.0000
     1.0000   1.0000   1.0000   1.0000   1.0000   1.0000   1.0000   1.0000
     1.0000   1.0000   1.0000   1.0000   1.0000   1.0000   1.0000   1.0000
     1.0000   1.0000   1.0000   1.0000   1.0000   1.0000   1.0000   1.0000
     1.0000   1.0000   1.0000   1.0000   1.0000   1.0000   1.0000   1.0000
     1.0000   1.0000   1.0000   1.0000   1.0000   1.0000   1.0000   1.0000
     1.0000   1.0000   1.0000   1.0000   1.0000   1.0000   1.0000   1.0000
     1.0000   1.0000   1.0000   1.0000   1.0000   1.0000   1.0000   1.0000
     1.0000   1.0000   1.0000   1.0000   1.0000   1.0000   1.0000   1.0000
     1.0000   1.0000   1.0000   1.0000   1.0000   1.0000   1.0000   1.0000
     1.0000   1.0000   1.0000   1.0000   1.0000   1.0000   1.0000   1.0000
     1.0000   1.0000   1.0000   1.0000   1.0000   1.0000   1.0000   1.0000
[...]
     atom   84 type  2   force =     0.00003499   -0.00011506   -0.00020589
     atom   85 type  3   force =    -0.00027357   -0.00342210    0.00171563
     atom   86 type  2   force =    -0.00027758    0.00028579   -0.00023473
     atom   87 type  3   force =    -0.00113162   -0.00329510   -0.00093049
     atom   88 type  3   force =    -0.00024564    0.00276678    0.00070213
     atom   89 type  1   force =    -0.00810407    0.01347009   -0.01365039
     atom   90 type  3   force =    -0.00039765   -0.00556737    0.00466460
     atom   91 type  2   force =     0.00011238   -0.00037792    0.00035530
     atom   92 type  2   force =    -0.00039116   -0.00045126    0.00056450
     atom   93 type  2   force =     0.00010963    0.00081825   -0.00064550
     atom   94 type  2   force =    -0.00049572    0.00143985   -0.00161433
     atom   95 type  2   force =    -0.00077208   -0.00031561    0.00080335
     atom   96 type  3   force =    -0.00117994    0.00094641    0.00115970
     atom   97 type  3   force =    -0.00158109    0.00001099   -0.00260888
     atom   98 type  2   force =     0.00030040   -0.00063696    0.00089618
     atom   99 type  2   force =    -0.00052675    0.00005280   -0.00021711
     atom  100 type  3   force =    -0.00080830    0.00061036   -0.00065629
     The Hubbard contrib.    to forces
     atom    1 type  2   force =     0.00000000    0.00000000    0.00000000
     atom    2 type  3   force =     0.00000000    0.00000000    0.00000000
     atom    3 type  2   force =     0.00000000    0.00000000    0.00000000
     atom    4 type  2   force =     0.00000000    0.00000000    0.00000000
     atom    5 type  3   force =     0.00000000    0.00000000    0.00000000
     atom    6 type  2   force =     0.00000000    0.00000000    0.00000000
     atom    7 type  2   force =     0.00000000    0.00000000    0.00000000
     atom    8 type  2   force =     0.00000000    0.00000000    0.00000000
     atom    9 type  3   force =     0.00000000    0.00000000    0.00000000
     atom   10 type  2   force =     0.00000000    0.00000000    0.00000000
     atom   11 type  3   force =     0.00000000    0.00000000    0.00000000
     atom   12 type  3   force =     0.00000000    0.00000000    0.00000000
     atom   13 type  3   force =     0.00000000    0.00000000    0.00000000
     atom   14 type  3   force =     0.00000000    0.00000000    0.00000000
     atom   15 type  2   force =     0.00000000    0.00000000    0.00000000
     atom   16 type  3   force =     0.00000000    0.00000000    0.00000000
     atom   17 type  2   force =     0.00000000    0.00000000    0.00000000
     atom   18 type  2   force =     0.00000000    0.00000000    0.00000000
     atom   19 type  3   force =     0.00000000    0.00000000    0.00000000
     atom   20 type  2   force =     0.00000000    0.00000000    0.00000000
     atom   21 type  2   force =     0.00000000    0.00000000    0.00000000
     atom   22 type  2   force =     0.00000000    0.00000000    0.00000000
     atom   23 type  3   force =     0.00000000    0.00000000    0.00000000
     atom   24 type  2   force =     0.00000000    0.00000000    0.00000000
     atom   25 type  2   force =     0.00000000    0.00000000    0.00000000
     atom   26 type  3   force =     0.00000000    0.00000000    0.00000000
     atom   27 type  2   force =     0.00000000    0.00000000    0.00000000
     atom   28 type  2   force =     0.00000000    0.00000000    0.00000000
     atom   29 type  3   force =     0.00000000    0.00000000    0.00000000
     atom   30 type  2   force =     0.00000000    0.00000000    0.00000000
     atom   31 type  3   force =     0.00000000    0.00000000    0.00000000
     atom   32 type  3   force =     0.00000000    0.00000000    0.00000000
     atom   33 type  3   force =     0.00000000    0.00000000    0.00000000
     atom   34 type  1   force =     0.00000000    0.00000000    0.00000000
     atom   35 type  2   force =     0.00000000    0.00000000    0.00000000
     atom   36 type  2   force =     0.00000000    0.00000000    0.00000000
     atom   37 type  3   force =     0.00000000    0.00000000    0.00000000
     atom   38 type  3   force =     0.00000000    0.00000000    0.00000000
     atom   39 type  2   force =     0.00000000    0.00000000    0.00000000
     atom   40 type  3   force =     0.00000000    0.00000000    0.00000000
     atom   41 type  3   force =     0.00000000    0.00000000    0.00000000
     atom   42 type  3   force =     0.00000000    0.00000000    0.00000000
     atom   43 type  2   force =     0.00000000    0.00000000    0.00000000
     atom   44 type  3   force =     0.00000000    0.00000000    0.00000000
     atom   45 type  2   force =     0.00000000    0.00000000    0.00000000
     atom   46 type  3   force =     0.00000000    0.00000000    0.00000000
     atom   47 type  3   force =     0.00000000    0.00000000    0.00000000
     atom   48 type  3   force =     0.00000000    0.00000000    0.00000000
     atom   49 type  2   force =     0.00000000    0.00000000    0.00000000
     atom   50 type  3   force =     0.00000000    0.00000000    0.00000000
     atom   51 type  3   force =     0.00000000    0.00000000    0.00000000
     atom   52 type  3   force =     0.00000000    0.00000000    0.00000000
     atom   53 type  2   force =     0.00000000    0.00000000    0.00000000
     atom   54 type  3   force =     0.00000000    0.00000000    0.00000000
     atom   55 type  3   force =     0.00000000    0.00000000    0.00000000
     atom   56 type  2   force =     0.00000000    0.00000000    0.00000000
     atom   57 type  3   force =     0.00000000    0.00000000    0.00000000
     atom   58 type  2   force =     0.00000000    0.00000000    0.00000000
     atom   59 type  3   force =     0.00000000    0.00000000    0.00000000
     atom   60 type  3   force =     0.00000000    0.00000000    0.00000000
     atom   61 type  2   force =     0.00000000    0.00000000    0.00000000
     atom   62 type  3   force =     0.00000000    0.00000000    0.00000000
     atom   63 type  2   force =     0.00000000    0.00000000    0.00000000
     atom   64 type  2   force =     0.00000000    0.00000000    0.00000000
     atom   65 type  3   force =     0.00000000    0.00000000    0.00000000
     atom   66 type  2   force =     0.00000000    0.00000000    0.00000000
     atom   67 type  2   force =     0.00000000    0.00000000    0.00000000
     atom   68 type  2   force =     0.00000000    0.00000000    0.00000000
     atom   69 type  2   force =     0.00000000    0.00000000    0.00000000
     atom   70 type  3   force =     0.00000000    0.00000000    0.00000000
     atom   71 type  2   force =     0.00000000    0.00000000    0.00000000
     atom   72 type  2   force =     0.00000000    0.00000000    0.00000000
     atom   73 type  3   force =     0.00000000    0.00000000    0.00000000
     atom   74 type  2   force =     0.00000000    0.00000000    0.00000000
     atom   75 type  2   force =     0.00000000    0.00000000    0.00000000
     atom   76 type  3   force =     0.00000000    0.00000000    0.00000000
     atom   77 type  3   force =     0.00000000    0.00000000    0.00000000
     atom   78 type  2   force =     0.00000000    0.00000000    0.00000000
     atom   79 type  3   force =     0.00000000    0.00000000    0.00000000
     atom   80 type  2   force =     0.00000000    0.00000000    0.00000000
     atom   81 type  3   force =     0.00000000    0.00000000    0.00000000
     atom   82 type  3   force =     0.00000000    0.00000000    0.00000000
     atom   83 type  3   force =     0.00000000    0.00000000    0.00000000
     atom   84 type  2   force =     0.00000000    0.00000000    0.00000000
     atom   85 type  3   force =     0.00000000    0.00000000    0.00000000
     atom   86 type  2   force =     0.00000000    0.00000000    0.00000000
     atom   87 type  3   force =     0.00000000    0.00000000    0.00000000
     atom   88 type  3   force =     0.00000000    0.00000000    0.00000000
     atom   89 type  1   force =     0.00000000    0.00000000    0.00000000
     atom   90 type  3   force =     0.00000000    0.00000000    0.00000000
     atom   91 type  2   force =     0.00000000    0.00000000    0.00000000
     atom   92 type  2   force =     0.00000000    0.00000000    0.00000000
     atom   93 type  2   force =     0.00000000    0.00000000    0.00000000
     atom   94 type  2   force =     0.00000000    0.00000000    0.00000000
     atom   95 type  2   force =     0.00000000    0.00000000    0.00000000
     atom   96 type  3   force =     0.00000000    0.00000000    0.00000000
     atom   97 type  3   force =     0.00000000    0.00000000    0.00000000
     atom   98 type  2   force =     0.00000000    0.00000000    0.00000000
     atom   99 type  2   force =     0.00000000    0.00000000    0.00000000
     atom  100 type  3   force =     0.00000000    0.00000000    0.00000000
     The SCF correction term to forces
     atom    1 type  2   force =    -0.00081485    0.00074989   -0.00059754
     atom    2 type  3   force =    -0.00051952   -0.00007565   -0.00013924
     atom    3 type  2   force =    -0.00082970    0.00082999    0.00021042
     atom    4 type  2   force =    -0.00079310    0.00120250    0.00045168
     atom    5 type  3   force =    -0.00005732    0.00056895   -0.00044926
     atom    6 type  2   force =    -0.00109255    0.00093900   -0.00027542
     atom    7 type  2   force =    -0.00075589    0.00039094   -0.00162525
     atom    8 type  2   force =    -0.00082263    0.00041034   -0.00080293
     atom    9 type  3   force =     0.00003577    0.00050528    0.00017395
     atom   10 type  2   force =    -0.00083616    0.00072665    0.00040260
     atom   11 type  3   force =    -0.00033066    0.00009647    0.00001045
     atom   12 type  3   force =    -0.00027928   -0.00028893    0.00066101
     atom   13 type  3   force =    -0.00046414    0.00018343   -0.00073021
     atom   14 type  3   force =    -0.00050060   -0.00054799    0.00016766
     atom   15 type  2   force =    -0.00047349   -0.00036371   -0.00032540
     atom   16 type  3   force =    -0.00033130   -0.00022838   -0.00000903
     atom   17 type  2   force =    -0.00069579   -0.00103392    0.00072889
     atom   18 type  2   force =    -0.00031478   -0.00110903    0.00035547
     atom   19 type  3   force =    -0.00047727   -0.00039170    0.00013666
     atom   20 type  2   force =     0.00015461   -0.00061549    0.00003520
     atom   21 type  2   force =    -0.00028185    0.00005582   -0.00089116
     atom   22 type  2   force =    -0.00082095   -0.00086145    0.00028045
     atom   23 type  3   force =    -0.00055291   -0.00003604    0.00031435
     atom   24 type  2   force =    -0.00023122    0.00018860    0.00004191
     atom   25 type  2   force =    -0.00100123    0.00024680    0.00038536
     atom   26 type  3   force =    -0.00030731    0.00048962   -0.00016052
     atom   27 type  2   force =     0.00022504    0.00004748    0.00006696
     atom   28 type  2   force =    -0.00052852    0.00054763    0.00016634
     atom   29 type  3   force =    -0.00066542    0.00063918    0.00029218
     atom   30 type  2   force =    -0.00077009    0.00053607   -0.00069308
     atom   31 type  3   force =     0.00005436    0.00032678   -0.00040154
     atom   32 type  3   force =    -0.00051815    0.00030795   -0.00091019
     atom   33 type  3   force =    -0.00001038    0.00016004   -0.00030840
     atom   34 type  1   force =    -0.00007000    0.00003523    0.00004244
     atom   35 type  2   force =    -0.00031906    0.00074010    0.00050930
     atom   36 type  2   force =    -0.00087666   -0.00020493    0.00083057
     atom   37 type  3   force =    -0.00016425   -0.00014724    0.00006495
     atom   38 type  3   force =    -0.00048213   -0.00027106   -0.00031722
     atom   39 type  2   force =    -0.00071972   -0.00016154   -0.00001695
     atom   40 type  3   force =    -0.00046361   -0.00048744    0.00042011
     atom   41 type  3   force =     0.00005773   -0.00039918    0.00045534
     atom   42 type  3   force =    -0.00048686   -0.00073226    0.00041495
     atom   43 type  2   force =    -0.00019031   -0.00102017    0.00030167
     atom   44 type  3   force =    -0.00020736   -0.00021582    0.00005044
     atom   45 type  2   force =    -0.00072128   -0.00070924   -0.00000747
     atom   46 type  3   force =     0.00008175   -0.00021030   -0.00030554
     atom   47 type  3   force =    -0.00000840   -0.00049362    0.00036638
     atom   48 type  3   force =    -0.00029130    0.00029655    0.00025578
     atom   49 type  2   force =    -0.00044077   -0.00004313    0.00044041
     atom   50 type  3   force =    -0.00057118    0.00007468   -0.00036310
     atom   51 type  3   force =     0.00033633    0.00022149   -0.00057179
     atom   52 type  3   force =     0.00053382    0.00009279   -0.00005769
     atom   53 type  2   force =     0.00023925    0.00087996    0.00023242
     atom   54 type  3   force =     0.00023149    0.00064186    0.00017589
     atom   55 type  3   force =     0.00056523    0.00040310   -0.00056247
     atom   56 type  2   force =     0.00077069    0.00012515   -0.00001773
     atom   57 type  3   force =     0.00032497    0.00041168    0.00007135
     atom   58 type  2   force =     0.00067395    0.00043375    0.00067017
     atom   59 type  3   force =     0.00053505   -0.00002603   -0.00012068
     atom   60 type  3   force =     0.00051418    0.00001788   -0.00050588
     atom   61 type  2   force =     0.00026027    0.00011936   -0.00110953
     atom   62 type  3   force =     0.00014085   -0.00029892    0.00025611
     atom   63 type  2   force =     0.00075565   -0.00014172    0.00077563
     atom   64 type  2   force =     0.00079938   -0.00092791    0.00059445
     atom   65 type  3   force =     0.00046214   -0.00066567    0.00007346
     atom   66 type  2   force =     0.00029967   -0.00061359   -0.00024117
     atom   67 type  2   force =     0.00061032   -0.00033807    0.00013782
     atom   68 type  2   force =     0.00072179   -0.00028080   -0.00011401
     atom   69 type  2   force =     0.00074706   -0.00069483    0.00035554
     atom   70 type  3   force =     0.00042676   -0.00000343    0.00025021
     atom   71 type  2   force =     0.00034319   -0.00085735    0.00038385
     atom   72 type  2   force =     0.00078484    0.00069614    0.00028865
     atom   73 type  3   force =     0.00034508   -0.00010806    0.00008084
     atom   74 type  2   force =     0.00081648    0.00023094   -0.00075393
     atom   75 type  2   force =     0.00087154    0.00066294   -0.00065057
     atom   76 type  3   force =    -0.00018659    0.00006549   -0.00018624
     atom   77 type  3   force =     0.00057122    0.00059553    0.00039900
     atom   78 type  2   force =     0.00008035    0.00073107    0.00059080
     atom   79 type  3   force =     0.00056897    0.00063873    0.00021969
     atom   80 type  2   force =     0.00062559    0.00016342   -0.00113118
     atom   81 type  3   force =     0.00038170    0.00012308   -0.00073827
     atom   82 type  3   force =     0.00001198    0.00019826   -0.00054120
     atom   83 type  3   force =     0.00035581    0.00015261    0.00022455
     atom   84 type  2   force =     0.00080574    0.00002645    0.00087869
     atom   85 type  3   force =     0.00002921    0.00040909    0.00029217
     atom   86 type  2   force =     0.00039547   -0.00068266   -0.00063396
     atom   87 type  3   force =     0.00027017   -0.00009805    0.00001437
     atom   88 type  3   force =     0.00043009   -0.00028128    0.00027874
     atom   89 type  1   force =    -0.00002577   -0.00008800    0.00008777
     atom   90 type  3   force =     0.00027056   -0.00053721    0.00035855
     atom   91 type  2   force =     0.00036178   -0.00098560   -0.00001072
     atom   92 type  2   force =     0.00063662   -0.00049522    0.00002849
     atom   93 type  2   force =     0.00066890   -0.00070743   -0.00012370
     atom   94 type  2   force =     0.00008612   -0.00048528    0.00001299
     atom   95 type  2   force =     0.00066915   -0.00032868   -0.00023539
     atom   96 type  3   force =     0.00021115   -0.00044221    0.00034739
     atom   97 type  3   force =    -0.00000730    0.00003744    0.00022215
     atom   98 type  2   force =     0.00093880   -0.00052980    0.00033527
     atom   99 type  2   force =     0.00085255    0.00067958   -0.00023132
     atom  100 type  3   force =     0.00040434   -0.00001842   -0.00003759

     Total force =     1.064873     Total SCF correction =     0.008669

     Writing output data file Zr49Cu49Al2.save
 
     init_run     :     38.64s CPU     39.57s WALL (       1 calls)
     electrons    :   6454.05s CPU   6564.12s WALL (       1 calls)
     forces       :     23.98s CPU     24.75s WALL (       1 calls)

     Called by init_run:
     wfcinit      :     30.65s CPU     30.98s WALL (       1 calls)
     wfcinit:atom :      0.07s CPU      0.09s WALL (       1 calls)
     wfcinit:wfcr :     30.33s CPU     30.55s WALL (       1 calls)
     potinit      :      1.13s CPU      1.21s WALL (       1 calls)

     Called by electrons:
     c_bands      :   5518.95s CPU   5584.05s WALL (      57 calls)
     sum_band     :    790.48s CPU    813.97s WALL (      57 calls)
     v_of_rho     :     22.62s CPU     23.33s WALL (      58 calls)
     v_h          :      2.15s CPU      2.23s WALL (      58 calls)
     v_xc         :     20.82s CPU     21.46s WALL (      59 calls)
     newd         :    100.13s CPU    119.89s WALL (      58 calls)
     PAW_pot      :     10.78s CPU     11.18s WALL (      58 calls)
     mix_rho      :      5.85s CPU      6.15s WALL (      57 calls)

     Called by c_bands:
     init_us_2    :      9.04s CPU      9.16s WALL (     115 calls)
     cegterg      :   5056.20s CPU   5109.99s WALL (      57 calls)

     Called by sum_band:
     sum_band:bec :      1.55s CPU      1.56s WALL (      57 calls)
     addusdens    :    132.79s CPU    152.07s WALL (      57 calls)

     Called by *egterg:
     h_psi        :   2124.50s CPU   2135.49s WALL (     158 calls)
     s_psi        :    439.21s CPU    440.33s WALL (     158 calls)
     g_psi        :      2.92s CPU      2.93s WALL (     100 calls)
     cdiaghg      :   1198.83s CPU   1215.07s WALL (     157 calls)
     cegterg:over :    522.64s CPU    525.79s WALL (     100 calls)
     cegterg:upda :    305.92s CPU    307.48s WALL (     100 calls)
     cegterg:last :    282.26s CPU    282.39s WALL (      57 calls)
     cdiaghg:chol :     61.27s CPU     61.84s WALL (     157 calls)
     cdiaghg:inve :     70.91s CPU     71.36s WALL (     157 calls)
     cdiaghg:para :    176.96s CPU    184.04s WALL (     314 calls)

     Called by h_psi:
     h_psi:pot    :   2115.80s CPU   2126.77s WALL (     158 calls)
     h_psi:calbec :    443.21s CPU    444.02s WALL (     158 calls)
     vloc_psi     :   1231.59s CPU   1240.39s WALL (     158 calls)
     add_vuspsi   :    440.99s CPU    442.36s WALL (     158 calls)

     General routines
     calbec       :    670.90s CPU    672.60s WALL (     219 calls)
     fft          :     29.14s CPU     30.38s WALL (     935 calls)
     ffts         :      0.77s CPU      0.78s WALL (     115 calls)
     fftw         :   1126.19s CPU   1134.44s WALL (  318998 calls)
     interpolate  :      4.72s CPU      4.93s WALL (     115 calls)
 
     Parallel routines
     fft_scatt_xy :    105.46s CPU    106.06s WALL (  320048 calls)
     fft_scatt_yz :    191.06s CPU    193.38s WALL (  320048 calls)

     PAW routines
     PAW_pot      :     10.78s CPU     11.18s WALL (      58 calls)
 
     PWSCF        :     1h48m CPU        1h56m WALL

 
   This run was terminated on:  19:21:21  19Apr2019            

=------------------------------------------------------------------------------=
   JOB DONE.
=------------------------------------------------------------------------------=
