  COHP#  atomMU  atomNU     distance     translation      ICOHP (at) eF   for spin  1
      1     Cu1     Zr2      2.73113       0   0   0           -1.11515 
      2     Cu1     Cu3      2.37853       0   0   0           -0.55245 
      3     Cu1     Cu7      2.41792       0   0   1           -0.56197 
      4     Cu1     Cu8      2.22458       0   0   0           -0.81748 
      5     Cu1     Zr9      2.72658       0   0   0           -0.96472 
      6     Cu1    Cu10      2.49967       0   0   0           -0.35410 
      7     Cu1    Zr11      2.37650       0   0   0           -2.26276 
      8     Cu1    Cu15      3.67280       0   0   1           -0.02469 
      9     Cu1    Cu21      3.87983       0   1   0           -0.01016 
     10     Cu1    Cu22      3.99916       0   1   0           -0.02169 
     11     Cu1    Zr26      2.76991       0   0   0           -0.99670 
     12     Cu1    Cu28      4.05803       0   0   0           -0.01157 
     13     Cu1    Zr32      3.16342       0   0   1           -0.49052 
     14     Cu1    Al34      3.75099       0   0   0           -0.10139 
     15     Cu1    Cu39      3.76603       0   0   0           -0.02873 
     16     Cu1    Zr76      2.59091       1   0   0           -1.38400 
     17     Cu1    Zr82      2.45521       1   0   0           -1.68524 
     18     Zr2     Cu3      2.60998       0   0   0           -1.31566 
     19     Zr2     Cu7      3.12906       0   0   1           -0.49935 
     20     Zr2     Cu8      3.93783       0   0   0           -0.06476 
     21     Zr2    Cu10      3.88433       0   0   0           -0.08854 
     22     Zr2    Zr16      3.76255       0   1   0           -0.54864 
     23     Zr2    Cu21      3.63273       0   1   0           -0.12497 
     24     Zr2    Cu22      2.37656       0   1   0           -2.65349 
     25     Zr2    Zr23      3.25201       0   1   0           -1.20790 
     26     Zr2    Zr26      2.73364       0   0   0           -3.81033 
     27     Zr2    Cu27      3.02017       0   0   0           -0.50071 
     28     Zr2    Cu28      2.89100       0   0   0           -0.69235 
     29     Zr2    Zr32      3.07849       0   0   1           -1.56883 
     30     Zr2    Zr40      3.56862       0   1   0           -0.77952 
     31     Zr2    Cu45      2.35334       0   1   0           -2.37826 
     32     Zr2    Zr46      3.01903       0   1   0           -1.80180 
     33     Zr2    Zr47      3.04434       0   1   0           -1.76784 
     34     Zr2    Zr50      3.29956       0   1   1           -0.99918 
     35     Zr2    Zr76      3.07010       1   0   0           -1.77439 
     36     Cu3     Cu4      3.25038       0   0   0           -0.06692 
     37     Cu3     Zr9      2.68298       0   0   0           -1.08605 
     38     Cu3    Cu10      1.96032       0   0   0           -1.85354 
     39     Cu3    Zr11      3.93527       0   0   0           -0.07193 
     40     Cu3    Zr12      3.94206       0   0   0           -0.07261 
     41     Cu3    Cu17      4.14156       0   1   0           -0.05572 
     42     Cu3    Cu22      3.34412       0   1   0           -0.10868 
     43     Cu3    Zr23      2.28350       0   1   0           -3.10470 
     44     Cu3    Zr26      2.98420       0   0   0           -0.65170 
     45     Cu3    Cu27      4.19801       0   0   0           -0.00788 
     46     Cu3    Cu28      2.43021       0   0   0           -0.55225 
     47     Cu3    Zr29      2.84999       0   0   0           -0.85079 
     48     Cu3    Al34      4.15063       0   0   0           -0.02024 
     49     Cu3    Cu35      3.68923       0   0   0           -0.00236 
     50     Cu3    Cu36      3.83630       0   0   0           -0.01731 
     51     Cu3    Zr47      4.07727       0   1   0           -0.05482 
     52     Cu3    Zr76      2.85080       1   0   0           -0.71176 
     53     Cu3    Cu78      2.78386       1   0   0           -0.30203 
     54     Cu3    Zr85      3.88617       1   0   0           -0.07796 
     55     Cu4     Zr5      2.68127       0   0   0           -1.07590 
     56     Cu4     Cu6      2.61746       0   0   0           -0.34110 
     57     Cu4    Zr13      3.20201       0   0   0           -0.40464 
     58     Cu4    Zr14      4.03408       0   0   0           -0.10085 
     59     Cu4    Cu17      3.79427       0   1   0           -0.03840 
     60     Cu4    Cu18      3.85644       0   1   0           -0.01491 
     61     Cu4    Zr23      2.48953       0   1   0           -1.78512 
     62     Cu4    Cu24      3.55261       0   1   0           -0.01654 
     63     Cu4    Cu25      2.28463       0   1   0           -0.82730 
     64     Cu4    Cu28      4.02306       0   0   0           -0.01169 
     65     Cu4    Zr29      2.52861       0   0   0           -1.83368 
     66     Cu4    Cu30      4.10153       0   0   0           -0.01292 
     67     Cu4    Zr42      4.13671       0   1   0           -0.05865 
     68     Cu4    Zr48      3.58078       0   1   0           -0.17999 
     69     Cu4    Cu78      2.48204       1   0   0           -0.48318 
     70     Cu4    Zr79      3.38079       1   0   0           -0.22344 
     71     Cu4    Cu80      3.88022       1   0   0           -0.03232 
     72     Cu4    Zr85      2.42647       1   0   0           -2.01278 
     73     Cu4    Zr97      2.37699       1   1   0           -2.25172 
     74     Zr5     Cu6      3.00129       0   0   0           -0.57985 
     75     Zr5     Cu7      2.67299       0   0   0           -1.05789 
     76     Zr5    Zr13      2.56669       0   0   0           -5.31868 
     77     Zr5    Cu18      4.19263       0   1   0           -0.04864 
     78     Zr5    Cu20      4.08145       0   1   0           -0.09293 
     79     Zr5    Cu21      2.47647       0   1  -1           -1.69061 
     80     Zr5    Cu24      2.22746       0   1   0           -3.36076 
     81     Zr5    Cu25      2.99638       0   1   0           -0.63370 
     82     Zr5    Zr50      3.33463       0   1   0           -1.00676 
     83     Zr5    Zr55      4.02377       1   0   0           -0.32070 
     84     Zr5    Zr79      3.32584       1   0   0           -0.98111 
     85     Zr5    Cu80      2.34153       1   0   0           -2.55337 
     86     Zr5    Zr81      2.87318       1   0   0           -2.44857 
     87     Zr5    Zr82      3.82983       1   0  -1           -0.40040 
     88     Zr5    Zr85      3.49263       1   0   0           -0.76132 
     89     Zr5    Cu86      3.61672       1   0   0           -0.22330 
     90     Zr5    Cu92      3.82491       1   1   0           -0.09504 
     91     Zr5    Zr97      2.99960       1   1   0           -1.97413 
     92     Zr5    Cu99      2.83834       1   1   0           -0.73179 
     93     Zr5   Zr100      3.43849       1   1   0           -0.90790 
     94     Cu6     Cu7      3.41141       0   0   0           -0.06169 
     95     Cu6    Zr13      2.44134       0   0   0           -1.94939 
     96     Cu6    Zr14      4.04812       0   0   0           -0.05958 
     97     Cu6    Zr19      3.82913       0   1   0           -0.10912 
     98     Cu6    Cu21      4.12364       0   1  -1           -0.00753 
     99     Cu6    Zr23      4.11534       0   1   0           -0.04059 
    100     Cu6    Cu24      3.64901       0   1   0           -0.02354 
    101     Cu6    Cu25      2.17765       0   1   0           -1.03510 
    102     Cu6    Zr29      2.79374       0   0   0           -0.90971 
    103     Cu6    Cu30      2.06331       0   0   0           -1.31133 
    104     Cu6    Zr31      2.95436       0   0   0           -0.62752 
    105     Cu6    Zr32      3.05814       0   0   0           -0.47513 
    106     Cu6    Zr38      4.04687       0   0   0           -0.06808 
    107     Cu6    Zr48      2.64382       0   1   0           -1.30845 
    108     Cu6    Cu49      2.90664       0   1   0           -0.16205 
    109     Cu6    Zr50      2.53505       0   1   0           -1.65193 
    110     Cu6    Zr54      3.90043       0   0   0           -0.08306 
    111     Cu6    Cu61      4.11273       0   0   0           -0.04231 
    112     Cu7     Cu8      3.06309       0   0  -1           -0.13382 
    113     Cu7    Zr11      4.13522       0   0  -1           -0.11184 
    114     Cu7    Zr13      2.61107       0   0   0           -1.37075 
    115     Cu7    Cu15      3.69029       0   0   0           -0.02326 
    116     Cu7    Zr16      3.89227       0   1  -1           -0.11541 
    117     Cu7    Cu21      1.97346       0   1  -1           -1.51694 
    118     Cu7    Cu22      3.92255       0   1  -1           -0.01189 
    119     Cu7    Cu24      3.77040       0   1   0           -0.02351 
    120     Cu7    Zr32      2.65590       0   0   0           -1.22395 
    121     Cu7    Zr50      2.61213       0   1   0           -1.30921 
    122     Cu7    Zr76      2.84445       1   0  -1           -0.84017 
    123     Cu7    Cu80      3.68355       1   0   0           -0.02294 
    124     Cu7    Zr81      3.00243       1   0   0           -0.48848 
    125     Cu7    Zr82      2.41122       1   0  -1           -2.15207 
    126     Cu7    Cu86      3.93111       1   0   0           -0.01479 
    127     Cu7    Cu94      3.92297       1   1  -1           -0.01797 
    128     Cu8    Cu10      3.54478       0   0   0            0.00017 
    129     Cu8    Zr11      2.51323       0   0   0           -1.72736 
    130     Cu8    Zr13      3.38094       0   0   1           -0.30948 
    131     Cu8    Cu15      2.54415       0   0   1           -0.46800 
    132     Cu8    Zr16      3.75209       0   0   0           -0.10616 
    133     Cu8    Zr26      2.73451       0   0   0           -0.79079 
    134     Cu8    Cu30      3.95618       0   0   1           -0.01764 
    135     Cu8    Zr32      2.29078       0   0   1           -2.93601 
    136     Cu8    Zr33      2.95497       0   0   0           -0.53277 
    137     Cu8    Al34      3.05942       0   0   0           -0.49365 
    138     Cu8    Zr38      2.70284       0   0   1           -1.21603 
    139     Cu8    Cu39      1.98165       0   0   0           -1.47450 
    140     Cu8    Zr40      4.14662       0   0   0           -0.01954 
    141     Cu8    Zr44      4.02076       0   0   1           -0.06609 
    142     Cu8    Cu45      4.08917       0   0   0           -0.04615 
    143     Cu8    Zr82      3.21375       1   0   0           -0.39232 
    144     Zr9    Cu10      2.86480       0   0   0           -0.86988 
    145     Zr9    Zr11      2.99137       0   0   0           -1.78125 
    146     Zr9    Zr12      2.79248       0   0   0           -3.05914 
    147     Zr9    Zr52      3.43060       1   0   0           -0.76385 
    148     Zr9    Cu75      3.10920       1   0   0           -0.38852 
    149     Zr9    Zr76      2.74185       1   0   0           -3.52306 
    150     Zr9    Zr77      3.06115       1   0   0           -1.50722 
    151     Zr9    Cu78      2.36180       1   0   0           -2.46863 
    152     Zr9    Zr82      3.27586       1   0   0           -0.98538 
    153     Zr9    Zr83      2.45132       1   0   0           -6.56223 
    154     Zr9    Cu84      3.33696       1   0   0           -0.25475 
    155     Zr9    Zr85      3.29988       1   0   0           -1.09619 
    156     Zr9    Al89      3.76003       1   0   0           -0.43121 
    157     Zr9    Zr96      4.06584       1   1   0           -0.33438 
    158    Cu10    Zr11      2.77496       0   0   0           -0.86017 
    159    Cu10    Zr12      2.74198       0   0   0           -1.12735 
    160    Cu10    Zr14      4.14351       0   0   0           -0.04082 
    161    Cu10    Zr23      4.07641       0   1   0           -0.11649 
    162    Cu10    Zr26      2.63955       0   0   0           -1.02144 
    163    Cu10    Cu28      3.13282       0   0   0           -0.09070 
    164    Cu10    Zr29      2.78301       0   0   0           -1.04893 
    165    Cu10    Al34      2.59654       0   0   0           -1.32831 
    166    Cu10    Cu35      2.69116       0   0   0           -0.17368 
    167    Cu10    Cu36      2.15985       0   0   0           -0.90948 
    168    Cu10    Cu39      3.96473       0   0   0           -0.01119 
    169    Cu10    Zr40      3.09348       0   0   0           -0.35717 
    170    Cu10    Zr41      4.12907       0   0   0           -0.02685 
    171    Cu10    Cu53      4.17352       0   0   0           -0.00807 
    172    Cu10    Cu78      3.95962       1   0   0           -0.00571 
    173    Cu10    Zr85      3.98608       1   0   0           -0.06704 
    174    Cu10    Al89      4.19698       1   0   0           -0.06604 
    175    Zr11    Zr12      3.32083       0   0   0           -0.68027 
    176    Zr11    Cu15      2.81264       0   0   1           -0.74377 
    177    Zr11    Zr16      2.83232       0   0   0           -2.53129 
    178    Zr11    Cu17      3.99775       0   0   0           -0.04257 
    179    Zr11    Cu22      3.47257       0   0   0           -0.10623 
    180    Zr11    Zr26      3.98160       0   0   0           -0.30864 
    181    Zr11    Al34      3.45780       0   0   0           -0.79232 
    182    Zr11    Cu36      4.02450       0   0   0           -0.05450 
    183    Zr11    Cu39      2.74676       0   0   0           -1.03736 
    184    Zr11    Zr40      2.89498       0   0   0           -2.16701 
    185    Zr11    Cu45      3.84665       0   0   0           -0.10206 
    186    Zr11    Zr82      2.69467       1   0   0           -3.71749 
    187    Zr11    Zr83      3.22840       1   0   0           -0.79098 
    188    Zr11    Zr87      3.04659       1   0   0           -1.34843 
    189    Zr11    Al89      2.43615       1   0   0           -3.55689 
    190    Zr11    Cu94      3.78865       1   0   0           -0.05556 
    191    Zr12    Zr14      3.09022       0   0   0           -1.62862 
    192    Zr12    Cu17      2.29800       0   0   0           -2.38993 
    193    Zr12    Cu18      2.70224       0   0   0           -1.08798 
    194    Zr12    Cu22      4.10307       0   0   0           -0.03409 
    195    Zr12    Zr29      3.86044       0   0   0           -0.45669 
    196    Zr12    Cu36      2.65977       0   0   0           -1.18629 
    197    Zr12    Zr40      3.16757       0   0   0           -1.32464 
    198    Zr12    Zr42      3.56529       0   0   0           -0.72650 
    199    Zr12    Cu78      4.06870       1   0   0           -0.09456 
    200    Zr12    Zr83      3.27107       1   0   0           -0.73171 
    201    Zr12    Cu84      3.08843       1   0   0           -0.45198 
    202    Zr12    Zr85      2.85532       1   0   0           -2.92522 
    203    Zr12    Al89      2.80445       1   0   0           -2.10338 
    204    Zr12    Zr90      2.84492       1   0   0           -2.41896 
    205    Zr12    Cu91      2.99644       1   0   0           -0.59866 
    206    Zr12    Zr97      4.19836       1   0   0           -0.25247 
    207    Zr13    Zr14      2.69270       0   0   0           -3.91680 
    208    Zr13    Cu15      2.66353       0   0   0           -1.23744 
    209    Zr13    Zr19      4.19613       0   0   0           -0.22172 
    210    Zr13    Cu20      3.87472       0   0   0           -0.08524 
    211    Zr13    Cu21      3.98349       0   1  -1           -0.10227 
    212    Zr13    Cu25      4.02718       0   1   0           -0.05812 
    213    Zr13    Zr29      3.50648       0   0   0           -0.66524 
    214    Zr13    Cu30      2.89722       0   0   0           -0.70139 
    215    Zr13    Zr32      3.25338       0   0   0           -1.15991 
    216    Zr13    Zr38      3.08421       0   0   0           -1.70118 
    217    Zr13    Zr50      3.78837       0   1   0           -0.48087 
    218    Zr13    Cu80      2.96610       1   0   0           -0.66104 
    219    Zr13    Zr81      4.16620       1   0   0           -0.16852 
    220    Zr13    Zr82      3.24981       1   0  -1           -1.24292 
    221    Zr13    Zr85      3.20683       1   0   0           -1.28256 
    222    Zr13    Cu86      2.44552       1   0   0           -1.94769 
    223    Zr13    Cu91      4.02144       1   0   0           -0.06386 
    224    Zr14    Cu15      3.32323       0   0   0           -0.29492 
    225    Zr14    Cu17      4.10098       0   0   0           -0.07695 
    226    Zr14    Cu18      2.49435       0   0   0           -1.76153 
    227    Zr14    Zr19      2.60036       0   0   0           -4.70956 
    228    Zr14    Cu20      3.18830       0   0   0           -0.38362 
    229    Zr14    Cu24      3.99471       0   0   0           -0.05835 
    230    Zr14    Cu25      4.00347       0   0   0           -0.09158 
    231    Zr14    Zr29      2.91698       0   0   0           -2.38211 
    232    Zr14    Cu30      3.43717       0   0   0           -0.23041 
    233    Zr14    Cu36      2.79634       0   0   0           -0.90285 
    234    Zr14    Zr37      3.24362       0   0   0           -1.04150 
    235    Zr14    Zr38      2.92443       0   0   0           -2.07358 
    236    Zr14    Zr42      2.88893       0   0   0           -2.36593 
    237    Zr14    Cu43      3.74458       0   0   0           -0.10710 
    238    Zr14    Zr85      2.96284       1   0   0           -2.25177 
    239    Zr14    Cu86      3.10965       1   0   0           -0.43482 
    240    Zr14    Cu91      3.07728       1   0   0           -0.53893 
    241    Cu15    Zr16      2.36216       0   0  -1           -2.35748 
    242    Cu15    Zr19      2.88726       0   0   0           -0.77815 
    243    Cu15    Cu20      2.44147       0   0   0           -0.51116 
    244    Cu15    Cu24      3.61181       0   0   0           -0.01765 
    245    Cu15    Zr32      4.13975       0   0   0           -0.06533 
    246    Cu15    Zr38      2.82373       0   0   0           -0.80426 
    247    Cu15    Cu39      3.04889       0   0  -1           -0.13430 
    248    Cu15    Cu80      3.96945       1   0   0           -0.02654 
    249    Cu15    Zr82      2.58793       1   0  -1           -1.33703 
    250    Cu15    Cu86      2.26940       1   0   0           -0.68798 
    251    Cu15    Zr87      2.74842       1   0  -1           -0.85271 
    252    Cu15    Cu91      4.16068       1   0   0           -0.03400 
    253    Zr16    Zr19      3.08215       0   0   1           -1.64848 
    254    Zr16    Cu20      3.07014       0   0   1           -0.52919 
    255    Zr16    Cu21      2.36544       0   0   0           -2.50723 
    256    Zr16    Cu22      2.75268       0   0   0           -0.79457 
    257    Zr16    Cu24      2.97342       0   0   1           -0.60440 
    258    Zr16    Zr38      4.04856       0   0   1           -0.26086 
    259    Zr16    Cu39      2.88983       0   0   0           -0.81323 
    260    Zr16    Zr40      3.84074       0   0   0           -0.34819 
    261    Zr16    Zr44      3.87443       0   0   1           -0.37852 
    262    Zr16    Cu45      2.75960       0   0   0           -0.99474 
    263    Zr16    Zr50      2.85162       0   0   1           -2.97347 
    264    Zr16    Zr76      3.99835       1  -1   0           -0.38948 
    265    Zr16    Zr82      4.16557       1   0   0           -0.24535 
    266    Zr16    Cu86      4.09926       1   0   1           -0.04581 
    267    Zr16    Zr87      2.86036       1   0   0           -2.36736 
    268    Zr16    Al89      3.11761       1   0   0           -1.34412 
    269    Zr16    Cu94      2.61302       1   0   0           -1.07401 
    270    Zr16   Zr100      3.44623       1   0   1           -0.77948 
    271    Cu17    Cu18      2.43183       0   0   0           -0.57776 
    272    Cu17    Cu22      2.55431       0   0   0           -0.19909 
    273    Cu17    Zr23      2.20550       0   0   0           -3.65204 
    274    Cu17    Cu25      3.60200       0   0   0           -0.01692 
    275    Cu17    Cu36      3.48647       0   0   0           -0.05273 
    276    Cu17    Zr40      2.70371       0   0   0           -0.86750 
    277    Cu17    Zr42      2.95229       0   0   0           -0.65014 
    278    Cu17    Zr76      4.05760       1  -1   0           -0.04643 
    279    Cu17    Cu78      3.66148       1  -1   0           -0.04993 
    280    Cu17    Zr83      4.19623       1   0   0           -0.03930 
    281    Cu17    Al89      2.36069       1   0   0           -1.76199 
    282    Cu17    Zr90      2.72910       1   0   0           -0.81159 
    283    Cu17    Cu91      3.96030       1   0   0           -0.01379 
    284    Cu17    Cu94      3.89125       1   0   0           -0.00811 
    285    Cu17    Zr96      2.85635       1   0   0           -0.58822 
    286    Cu17    Zr97      2.71099       1   0   0           -1.16423 
    287    Cu18    Zr19      2.88337       0   0   0           -0.68668 
    288    Cu18    Cu20      2.53754       0   0   0           -0.46128 
    289    Cu18    Zr23      3.61026       0   0   0           -0.13077 
    290    Cu18    Cu24      2.57379       0   0   0           -0.36359 
    291    Cu18    Cu25      2.67692       0   0   0           -0.29788 
    292    Cu18    Cu36      3.73741       0   0   0           -0.02173 
    293    Cu18    Zr42      2.76883       0   0   0           -0.78446 
    294    Cu18    Cu84      4.03479       1   0   0           -0.01209 
    295    Cu18    Zr85      3.84394       1   0   0           -0.14749 
    296    Cu18    Cu86      3.65820       1   0   0           -0.00105 
    297    Cu18    Zr90      2.98313       1   0   0           -0.61536 
    298    Cu18    Cu91      2.31664       1   0   0           -0.83704 
    299    Cu18    Cu92      2.79821       1   0   0           -0.19701 
    300    Cu18    Zr97      2.27031       1   0   0           -3.08099 
    301    Cu18    Cu98      4.12399       1   0   0           -0.01355 
    302    Zr19    Cu20      2.90353       0   0   0           -0.73309 
    303    Zr19    Cu21      4.00609       0   0  -1           -0.06191 
    304    Zr19    Cu24      2.49245       0   0   0           -1.69679 
    305    Zr19    Cu25      2.42309       0   0   0           -1.93613 
    306    Zr19    Zr37      4.02891       0   0   0           -0.29526 
    307    Zr19    Zr38      2.58658       0   0   0           -4.67087 
    308    Zr19    Cu39      3.83844       0   0  -1           -0.10777 
    309    Zr19    Zr42      2.87614       0   0   0           -2.45499 
    310    Zr19    Cu43      2.98485       0   0   0           -0.52420 
    311    Zr19    Zr44      3.07686       0   0   0           -1.50233 
    312    Zr19    Cu45      4.12920       0   0  -1           -0.05150 
    313    Zr19    Cu49      2.54734       0   0   0           -1.44399 
    314    Zr19    Zr50      2.72518       0   0   0           -3.68266 
    315    Zr19    Cu86      3.99290       1   0   0           -0.03857 
    316    Cu20    Cu21      3.68817       0   0  -1           -0.01279 
    317    Cu20    Cu24      1.99024       0   0   0           -1.66039 
    318    Cu20    Cu25      3.89653       0   0   0           -0.01647 
    319    Cu20    Zr60      4.16729       1   0   0           -0.02723 
    320    Cu20    Cu80      3.93723       1   0   0           -0.05454 
    321    Cu20    Zr82      4.09017       1   0  -1           -0.06624 
    322    Cu20    Cu86      1.99746       1   0   0           -1.60388 
    323    Cu20    Zr87      2.83589       1   0  -1           -0.81579 
    324    Cu20    Cu91      2.40513       1   0   0           -0.59008 
    325    Cu20    Cu92      2.37770       1   0   0           -0.67223 
    326    Cu20    Cu93      2.54906       1   0   0           -0.37646 
    327    Cu20    Zr97      3.68884       1   0   0           -0.13255 
    328    Cu20    Cu99      3.75355       1   0   0           -0.01038 
    329    Cu20   Zr100      2.61711       1   0   0           -1.32671 
    330    Cu21    Cu22      3.21881       0   0   0           -0.06010 
    331    Cu21    Cu24      2.48603       0   0   1           -0.47536 
    332    Cu21    Cu25      4.16740       0   0   1           -0.00457 
    333    Cu21    Zr32      4.17829       0  -1   1           -0.07411 
    334    Cu21    Cu45      4.00107       0   0   0           -0.01237 
    335    Cu21    Zr50      2.63860       0   0   1           -1.20541 
    336    Cu21    Zr76      2.74869       1  -1   0           -0.97989 
    337    Cu21    Cu80      4.00999       1  -1   1           -0.02874 
    338    Cu21    Zr81      2.60552       1  -1   1           -1.35970 
    339    Cu21    Zr82      3.68574       1  -1   0           -0.17377 
    340    Cu21    Zr87      3.93994       1   0   0           -0.08362 
    341    Cu21    Al89      4.14072       1   0   0           -0.02931 
    342    Cu21    Cu94      2.38914       1   0   0           -0.72618 
    343    Cu21    Cu95      3.28625       1   0   0           -0.02849 
    344    Cu21    Cu99      3.88136       1   0   1           -0.01415 
    345    Cu21   Zr100      2.71866       1   0   1           -1.01965 
    346    Cu22    Zr23      2.76691       0   0   0           -0.86239 
    347    Cu22    Cu39      4.00336       0   0   0           -0.00775 
    348    Cu22    Zr40      2.56811       0   0   0           -1.22996 
    349    Cu22    Cu45      2.88307       0   0   0           -0.26259 
    350    Cu22    Zr47      3.82577       0   0   0           -0.15359 
    351    Cu22    Zr50      4.15780       0   0   1           -0.04998 
    352    Cu22    Zr76      2.40295       1  -1   0           -2.25518 
    353    Cu22    Cu78      4.01927       1  -1   0           -0.00575 
    354    Cu22    Al89      2.13500       1   0   0           -2.86640 
    355    Cu22    Cu94      2.34932       1   0   0           -0.34632 
    356    Cu22    Zr96      3.22761       1   0   0           -0.18971 
    357    Zr23    Cu25      2.92739       0   0   0           -0.72582 
    358    Zr23    Cu28      2.72817       0  -1   0           -0.98824 
    359    Zr23    Zr29      3.32652       0  -1   0           -1.12795 
    360    Zr23    Zr40      3.26325       0   0   0           -1.20879 
    361    Zr23    Zr42      2.94110       0   0   0           -2.15841 
    362    Zr23    Zr47      3.18913       0   0   0           -1.23110 
    363    Zr23    Zr48      3.22092       0   0   0           -1.28345 
    364    Zr23    Zr76      3.66158       1  -1   0           -0.63408 
    365    Zr23    Cu78      2.93129       1  -1   0           -0.69458 
    366    Zr23    Al89      3.98210       1   0   0           -0.40692 
    367    Zr23    Zr96      3.72158       1   0   0           -0.47704 
    368    Zr23    Zr97      3.08703       1   0   0           -1.66863 
    369    Cu24    Cu25      2.41382       0   0   0           -0.58900 
    370    Cu24    Zr42      4.17864       0   0   0           -0.04679 
    371    Cu24    Zr50      2.97341       0   0   0           -0.57837 
    372    Cu24    Zr81      4.08559       1  -1   0           -0.05461 
    373    Cu24    Cu86      3.95520       1   0   0           -0.06378 
    374    Cu24    Zr87      4.03044       1   0  -1           -0.04958 
    375    Cu24    Cu91      3.77843       1   0   0           -0.00610 
    376    Cu24    Cu92      2.77315       1   0   0           -0.23002 
    377    Cu24    Cu93      3.97670       1   0   0           -0.01080 
    378    Cu24    Cu94      4.16059       1   0  -1           -0.01023 
    379    Cu24    Zr97      2.75233       1   0   0           -0.99984 
    380    Cu24    Cu99      3.14943       1   0   0           -0.09288 
    381    Cu24   Zr100      2.70993       1   0   0           -1.06711 
    382    Cu25    Zr29      3.72922       0  -1   0           -0.14399 
    383    Cu25    Cu30      4.13416       0  -1   0           -0.05227 
    384    Cu25    Zr42      2.47222       0   0   0           -1.79337 
    385    Cu25    Cu43      3.92021       0   0   0           -0.01417 
    386    Cu25    Zr48      2.75227       0   0   0           -0.98632 
    387    Cu25    Cu49      2.74901       0   0   0           -0.25799 
    388    Cu25    Zr50      2.98927       0   0   0           -0.56093 
    389    Cu25    Zr97      2.80762       1   0   0           -0.83606 
    390    Zr26    Cu27      2.37190       0   0   0           -2.26764 
    391    Zr26    Cu28      2.57785       0   0   0           -1.47885 
    392    Zr26    Zr32      2.94988       0   0   1           -2.11908 
    393    Zr26    Zr33      3.18335       0   0   0           -0.98369 
    394    Zr26    Al34      2.27482       0   0   0           -5.68710 
    395    Zr26    Cu35      2.76297       0   0   0           -0.80541 
    396    Zr26    Cu36      3.99749       0   0   0           -0.02590 
    397    Zr26    Cu39      3.58233       0   0   0           -0.05055 
    398    Zr26    Zr46      3.59166       0   1   0           -0.69937 
    399    Zr26    Zr47      4.14290       0   1   0           -0.37560 
    400    Zr26    Zr51      3.31390       0   0   0           -0.92555 
    401    Zr26    Cu53      2.76415       0   0   0           -0.87616 
    402    Zr26    Zr57      3.17054       0   0   0           -1.18254 
    403    Cu27    Cu28      2.42145       0   0   0           -0.52431 
    404    Cu27    Zr32      3.91903       0   0   1           -0.11149 
    405    Cu27    Cu35      3.66568       0   0   0           -0.01897 
    406    Cu27    Cu45      3.74546       0   1   0           -0.04139 
    407    Cu27    Zr46      2.47147       0   1   0           -1.74092 
    408    Cu27    Zr47      2.59778       0   1   0           -1.33458 
    409    Cu27    Zr51      2.80740       0   0   0           -0.87340 