
     Program PWSCF v.6.2 (svn rev. 13949:13950) starts on 19Apr2019 at 17:30: 1 

     This program is part of the open-source Quantum ESPRESSO suite
     for quantum simulation of materials; please cite
         "P. Giannozzi et al., J. Phys.:Condens. Matter 21 395502 (2009);
         "P. Giannozzi et al., J. Phys.:Condens. Matter 29 465901 (2017);
          URL http://www.quantum-espresso.org", 
     in publications or presentations arising from this work. More details at
     http://www.quantum-espresso.org/quote

     Parallel version (MPI & OpenMP), running on     192 processor cores
     Number of MPI processes:               192
     Threads/MPI process:                     1

     MPI processes distributed on     8 nodes
     K-points division:     npool     =       8
     R & G space division:  proc/nbgrp/npool/nimage =      24
     Waiting for input...
     Reading input from standard input

     Current dimensions of program PWSCF are:
     Max number of different atomic species (ntypx) = 10
     Max number of k-points (npk) =  40000
     Max angular momentum in pseudopotentials (lmaxx) =  3
               file Al.aryjr-1.0.0-ld1.UPF: wavefunction(s)  3S 3P renormalized
               file Cu.aryjr-1.0.0-ld1.UPF: wavefunction(s)  4S 3P 3D renormalized
               file Zr.aryjr-1.0.0-ld1.UPF: wavefunction(s)  4S 4P renormalized

     Subspace diagonalization in iterative solution of the eigenvalue problem:
     one sub-group per band group will be used
     scalapack distributed-memory algorithm (size of sub-group:  3*  3 procs)

 
     Parallelization info
     --------------------
     sticks:   dense  smooth     PW     G-vecs:    dense   smooth      PW
     Min         959     480    123               111711    39495    5151
     Max         960     481    124               111716    39500    5154
     Sum       23029   11521   2965              2681107   947955  123651
 

     Title: 
     Zr49Cu49Al2                                                                


     bravais-lattice index     =            0
     lattice parameter (alat)  =      22.7304  a.u.
     unit-cell volume          =   11979.0538 (a.u.)^3
     number of atoms/cell      =          100
     number of atomic types    =            3
     number of electrons       =      1525.00
     number of Kohn-Sham states=         1086
     kinetic-energy cutoff     =      70.0000  Ry
     charge density cutoff     =     560.0000  Ry
     convergence threshold     =      1.0E-06
     mixing beta               =       0.4000
     number of iterations used =            8  plain     mixing
     Exchange-correlation      =  SLA  PW   PBX  PBC ( 1  4  3  4 0 0)

     celldm(1)=  22.730420  celldm(2)=   0.000000  celldm(3)=   0.000000
     celldm(4)=   0.000000  celldm(5)=   0.000000  celldm(6)=   0.000000

     crystal axes: (cart. coord. in units of alat)
               a(1) = (   1.000000   0.000000   0.000000 )  
               a(2) = (   0.000000   1.000000   0.000000 )  
               a(3) = (   0.000000   0.000000   1.020000 )  

     reciprocal axes: (cart. coord. in units 2 pi/alat)
               b(1) = (  1.000000  0.000000  0.000000 )  
               b(2) = (  0.000000  1.000000  0.000000 )  
               b(3) = (  0.000000  0.000000  0.980392 )  


     PseudoPot. # 1 for Al read from file:
     /scratch/rmnvm/ary.junior/UPFs/Al.aryjr-1.0.0-ld1.UPF
     MD5 check sum: 23518be3108914e66f28d0b5ae5ea896
     Pseudo is Projector augmented-wave + core cor, Zval =  3.0
     Generated using "atomic" code by A. Dal Corso  v.5.3.0 svn rev. 11974
     Shape of augmentation charge: PSQ
     Using radial grid of 1135 points,  4 beta functions with: 
                l(1) =   0
                l(2) =   0
                l(3) =   1
                l(4) =   1
     Q(r) pseudized with 0 coefficients 


     PseudoPot. # 2 for Cu read from file:
     /scratch/rmnvm/ary.junior/UPFs/Cu.aryjr-1.0.0-ld1.UPF
     MD5 check sum: 9308548b6d8348cb0f7fa79efd90ef1e
     Pseudo is Projector augmented-wave + core cor, Zval = 19.0
     Generated using "atomic" code by A. Dal Corso  v.5.3.0 svn rev. 11974
     Shape of augmentation charge: PSQ
     Using radial grid of 1199 points,  6 beta functions with: 
                l(1) =   0
                l(2) =   0
                l(3) =   1
                l(4) =   1
                l(5) =   2
                l(6) =   2
     Q(r) pseudized with 0 coefficients 


     PseudoPot. # 3 for Zr read from file:
     /scratch/rmnvm/ary.junior/UPFs/Zr.aryjr-1.0.0-ld1.UPF
     MD5 check sum: 20f111a850f3481eb9ed9a4dbb9cca44
     Pseudo is Projector augmented-wave + core cor, Zval = 12.0
     Generated using "atomic" code by A. Dal Corso  v.5.3.0 svn rev. 11974
     Shape of augmentation charge: PSQ
     Using radial grid of 1225 points,  6 beta functions with: 
                l(1) =   0
                l(2) =   0
                l(3) =   1
                l(4) =   1
                l(5) =   2
                l(6) =   2
     Q(r) pseudized with 0 coefficients 


     atomic species   valence    mass     pseudopotential
        Al             3.00    26.98150     Al( 1.00)
        Cu            19.00    63.54630     Cu( 1.00)
        Zr            12.00    91.22400     Zr( 1.00)

     No symmetry found


                                    s                        frac. trans.

      isym =  1     identity                                     

 cryst.   s( 1) = (     1          0          0      )
                  (     0          1          0      )
                  (     0          0          1      )

 cart.    s( 1) = (  1.0000000  0.0000000  0.0000000 )
                  (  0.0000000  1.0000000  0.0000000 )
                  (  0.0000000  0.0000000  1.0000000 )


   Cartesian axes

     site n.     atom                  positions (alat units)
         1           Cu  tau(   1) = (   0.1532540   0.2277590   0.1599207  )
         2           Zr  tau(   2) = (   0.2632450  -0.0190070   0.1823791  )
         3           Cu  tau(   3) = (   0.1770600   0.1315620   0.3441225  )
         4           Cu  tau(   4) = (   0.1041000   0.0611130   0.6032147  )
         5           Zr  tau(   5) = (   0.0179050   0.0327190   0.8116140  )
         6           Cu  tau(   6) = (   0.2603280   0.0656340   0.7576774  )
         7           Cu  tau(   7) = (   0.1177750   0.1023710   1.0059607  )
         8           Cu  tau(   8) = (   0.2607600   0.3549830   0.0468537  )
         9           Zr  tau(   9) = (  -0.0132520   0.2717730   0.3126453  )
        10           Cu  tau(  10) = (   0.2185700   0.3285600   0.3435696  )
        11           Zr  tau(  11) = (   0.1152240   0.4699240   0.1676299  )
        12           Zr  tau(  12) = (   0.0615040   0.4952260   0.4430788  )
        13           Zr  tau(  13) = (   0.1385390   0.2523210   0.8226443  )
        14           Zr  tau(  14) = (   0.1772030   0.4605960   0.6753369  )
        15           Cu  tau(  15) = (   0.1140550   0.4794900   0.9492507  )
        16           Zr  tau(  16) = (   0.1178980   0.6997470   0.0176011  )
        17           Cu  tau(  17) = (   0.0775240   0.7324330   0.4275554  )
        18           Cu  tau(  18) = (   0.0595990   0.6651690   0.6254915  )
        19           Zr  tau(  19) = (   0.2258380   0.6737150   0.8015119  )
        20           Cu  tau(  20) = (  -0.0091150   0.6101890   0.8239305  )
        21           Cu  tau(  21) = (   0.0411810   0.9211880  -0.0206234  )
        22           Cu  tau(  22) = (   0.1181520   0.8230530   0.2282270  )
        23           Zr  tau(  23) = (   0.1762560   0.9250130   0.4394558  )
        24           Cu  tau(  24) = (   0.0470770   0.8041300   0.8115416  )
        25           Cu  tau(  25) = (   0.1929970   0.8760390   0.6838620  )
        26           Zr  tau(  26) = (   0.3771530   0.2235980   0.2147273  )
        27           Cu  tau(  27) = (   0.5030380   0.0370620   0.2429956  )
        28           Cu  tau(  28) = (   0.3667550   0.0675060   0.3920686  )
        29           Zr  tau(  29) = (   0.2658580   0.2188980   0.5565497  )
        30           Cu  tau(  30) = (   0.3727640   0.2269500   0.7692289  )
        31           Zr  tau(  31) = (   0.4909010   0.0266550   0.8379310  )
        32           Zr  tau(  32) = (   0.3344380   0.1538590   0.9950671  )
        33           Zr  tau(  33) = (   0.5010310   0.4176720   0.0363304  )
        34           Al  tau(  34) = (   0.3891260   0.4541170   0.2557079  )
        35           Cu  tau(  35) = (   0.4270120   0.3295000   0.4264844  )
        36           Cu  tau(  36) = (   0.2812900   0.4786180   0.4638154  )
        37           Zr  tau(  37) = (   0.4431220   0.4213950   0.6427305  )
        38           Zr  tau(  38) = (   0.3330890   0.4543610   0.8655750  )
        39           Cu  tau(  39) = (   0.3161030   0.5456970   0.0757207  )
        40           Zr  tau(  40) = (   0.2556010   0.6436620   0.3078635  )
        41           Zr  tau(  41) = (   0.4786970   0.5775920   0.4479972  )
        42           Zr  tau(  42) = (   0.2806530   0.6952180   0.5647617  )
        43           Cu  tau(  43) = (   0.4540980   0.6339770   0.7076668  )
        44           Zr  tau(  44) = (   0.4302580   0.6894230   0.9578340  )
        45           Cu  tau(  45) = (   0.3223560   0.7658970   0.1090125  )
        46           Zr  tau(  46) = (   0.4766140   0.9323300   0.0535408  )
        47           Zr  tau(  47) = (   0.4135570   0.8280610   0.3484075  )
        48           Zr  tau(  48) = (   0.3922520   0.9679630   0.5970417  )
        49           Cu  tau(  49) = (   0.3999990   0.8197080   0.7713168  )
        50           Zr  tau(  50) = (   0.2492660   0.9077680   0.9294056  )
        51           Zr  tau(  51) = (   0.5957130   0.1641180   0.0506665  )
        52           Zr  tau(  52) = (   0.7575530   0.0797000   0.2390758  )
        53           Cu  tau(  53) = (   0.5410490   0.1728210   0.3737188  )
        54           Zr  tau(  54) = (   0.5357240   0.1819230   0.6110952  )
        55           Zr  tau(  55) = (   0.6936450   0.1353580   0.8159837  )
        56           Cu  tau(  56) = (   0.6996980   0.4938770   0.1260975  )
        57           Zr  tau(  57) = (   0.6154380   0.3496160   0.2660843  )
        58           Cu  tau(  58) = (   0.6163860   0.3829110   0.4997571  )
        59           Zr  tau(  59) = (   0.7406390   0.3425790   0.6883337  )
        60           Zr  tau(  60) = (   0.7412480   0.3575700   0.9564091  )
        61           Cu  tau(  61) = (   0.5350970   0.2943340   0.8485390  )
        62           Zr  tau(  62) = (   0.5219300   0.6602630   0.1838836  )
        63           Cu  tau(  63) = (   0.6764360   0.5422660   0.3582005  )
        64           Cu  tau(  64) = (   0.6518880   0.7490820   0.3888199  )
        65           Zr  tau(  65) = (   0.6685970   0.5790940   0.6318441  )
        66           Cu  tau(  66) = (   0.5727900   0.5080700   0.8341662  )
        67           Cu  tau(  67) = (   0.6643170   0.6087910   0.9890205  )
        68           Cu  tau(  68) = (   0.6453030   0.7910700   0.0294362  )
        69           Cu  tau(  69) = (   0.6369180   0.8868360   0.2448112  )
        70           Zr  tau(  70) = (   0.6303260   0.9759980   0.4485440  )
        71           Cu  tau(  71) = (   0.5295050   0.7794890   0.5910961  )
        72           Cu  tau(  72) = (   0.6242650   0.9611470   0.6653439  )
        73           Zr  tau(  73) = (   0.6264570   0.7657160   0.8015262  )
        74           Cu  tau(  74) = (   0.6866730   0.9527310   0.9547251  )
        75           Cu  tau(  75) = (   0.7980740   0.2687160   0.1324429  )
        76           Zr  tau(  76) = (   1.0111800   0.0294580   0.1928891  )
        77           Zr  tau(  77) = (   0.7674370   0.2250570   0.4386999  )
        78           Cu  tau(  78) = (   0.9704410   0.0880180   0.4443711  )
        79           Zr  tau(  79) = (   0.8233740   0.0724900   0.6138370  )
        80           Cu  tau(  80) = (   0.8934150   0.2197080   0.8161407  )
        81           Zr  tau(  81) = (   0.8687050   0.0849730   0.9970428  )
        82           Zr  tau(  82) = (   0.9982840   0.2941060   0.0357031  )
        83           Zr  tau(  83) = (   0.8616490   0.4609810   0.2570533  )
        84           Cu  tau(  84) = (   0.8132930   0.4350980   0.4887391  )
        85           Zr  tau(  85) = (   0.9981660   0.2752820   0.5922150  )
        86           Cu  tau(  86) = (   0.9756890   0.4038440   0.8339010  )
        87           Zr  tau(  87) = (   0.9133460   0.5484550   0.0253766  )
        88           Zr  tau(  88) = (   0.7753420   0.6984470   0.1954361  )
        89           Al  tau(  89) = (   1.0048900   0.6548750   0.2526846  )
        90           Zr  tau(  90) = (   0.8636860   0.6537190   0.4706606  )
        91           Cu  tau(  91) = (   0.9239290   0.4981350   0.6548981  )
        92           Cu  tau(  92) = (   0.8484040   0.7178360   0.7152260  )
        93           Cu  tau(  93) = (   0.7838010   0.5560280   0.8363786  )
        94           Cu  tau(  94) = (   0.9491700   0.8012760   0.1299194  )
        95           Cu  tau(  95) = (   0.7960670   0.9101280   0.1021285  )
        96           Zr  tau(  96) = (   0.8820060   0.8729030   0.3516715  )
        97           Zr  tau(  97) = (   0.9756070   0.8735870   0.5971896  )
        98           Cu  tau(  98) = (   0.7438140   0.8240090   0.5836654  )
        99           Cu  tau(  99) = (   0.8036460   0.9168100   0.7766310  )
       100           Zr  tau( 100) = (   0.8574510   0.7776480   0.9337314  )

   Crystallographic axes

     site n.     atom                  positions (cryst. coord.)
         1           Cu  tau(   1) = (  0.1532540  0.2277590  0.1567850  )
         2           Zr  tau(   2) = (  0.2632450 -0.0190070  0.1788030  )
         3           Cu  tau(   3) = (  0.1770600  0.1315620  0.3373750  )
         4           Cu  tau(   4) = (  0.1041000  0.0611130  0.5913870  )
         5           Zr  tau(   5) = (  0.0179050  0.0327190  0.7957000  )
         6           Cu  tau(   6) = (  0.2603280  0.0656340  0.7428210  )
         7           Cu  tau(   7) = (  0.1177750  0.1023710  0.9862360  )
         8           Cu  tau(   8) = (  0.2607600  0.3549830  0.0459350  )
         9           Zr  tau(   9) = ( -0.0132520  0.2717730  0.3065150  )
        10           Cu  tau(  10) = (  0.2185700  0.3285600  0.3368330  )
        11           Zr  tau(  11) = (  0.1152240  0.4699240  0.1643430  )
        12           Zr  tau(  12) = (  0.0615040  0.4952260  0.4343910  )
        13           Zr  tau(  13) = (  0.1385390  0.2523210  0.8065140  )
        14           Zr  tau(  14) = (  0.1772030  0.4605960  0.6620950  )
        15           Cu  tau(  15) = (  0.1140550  0.4794900  0.9306380  )
        16           Zr  tau(  16) = (  0.1178980  0.6997470  0.0172560  )
        17           Cu  tau(  17) = (  0.0775240  0.7324330  0.4191720  )
        18           Cu  tau(  18) = (  0.0595990  0.6651690  0.6132270  )
        19           Zr  tau(  19) = (  0.2258380  0.6737150  0.7857960  )
        20           Cu  tau(  20) = ( -0.0091150  0.6101890  0.8077750  )
        21           Cu  tau(  21) = (  0.0411810  0.9211880 -0.0202190  )
        22           Cu  tau(  22) = (  0.1181520  0.8230530  0.2237520  )
        23           Zr  tau(  23) = (  0.1762560  0.9250130  0.4308390  )
        24           Cu  tau(  24) = (  0.0470770  0.8041300  0.7956290  )
        25           Cu  tau(  25) = (  0.1929970  0.8760390  0.6704530  )
        26           Zr  tau(  26) = (  0.3771530  0.2235980  0.2105170  )
        27           Cu  tau(  27) = (  0.5030380  0.0370620  0.2382310  )
        28           Cu  tau(  28) = (  0.3667550  0.0675060  0.3843810  )
        29           Zr  tau(  29) = (  0.2658580  0.2188980  0.5456370  )
        30           Cu  tau(  30) = (  0.3727640  0.2269500  0.7541460  )
        31           Zr  tau(  31) = (  0.4909010  0.0266550  0.8215010  )
        32           Zr  tau(  32) = (  0.3344380  0.1538590  0.9755560  )
        33           Zr  tau(  33) = (  0.5010310  0.4176720  0.0356180  )
        34           Al  tau(  34) = (  0.3891260  0.4541170  0.2506940  )
        35           Cu  tau(  35) = (  0.4270120  0.3295000  0.4181220  )
        36           Cu  tau(  36) = (  0.2812900  0.4786180  0.4547210  )
        37           Zr  tau(  37) = (  0.4431220  0.4213950  0.6301280  )
        38           Zr  tau(  38) = (  0.3330890  0.4543610  0.8486030  )
        39           Cu  tau(  39) = (  0.3161030  0.5456970  0.0742360  )
        40           Zr  tau(  40) = (  0.2556010  0.6436620  0.3018270  )
        41           Zr  tau(  41) = (  0.4786970  0.5775920  0.4392130  )
        42           Zr  tau(  42) = (  0.2806530  0.6952180  0.5536880  )
        43           Cu  tau(  43) = (  0.4540980  0.6339770  0.6937910  )
        44           Zr  tau(  44) = (  0.4302580  0.6894230  0.9390530  )
        45           Cu  tau(  45) = (  0.3223560  0.7658970  0.1068750  )
        46           Zr  tau(  46) = (  0.4766140  0.9323300  0.0524910  )
        47           Zr  tau(  47) = (  0.4135570  0.8280610  0.3415760  )
        48           Zr  tau(  48) = (  0.3922520  0.9679630  0.5853350  )
        49           Cu  tau(  49) = (  0.3999990  0.8197080  0.7561930  )
        50           Zr  tau(  50) = (  0.2492660  0.9077680  0.9111820  )
        51           Zr  tau(  51) = (  0.5957130  0.1641180  0.0496730  )
        52           Zr  tau(  52) = (  0.7575530  0.0797000  0.2343880  )
        53           Cu  tau(  53) = (  0.5410490  0.1728210  0.3663910  )
        54           Zr  tau(  54) = (  0.5357240  0.1819230  0.5991130  )
        55           Zr  tau(  55) = (  0.6936450  0.1353580  0.7999840  )
        56           Cu  tau(  56) = (  0.6996980  0.4938770  0.1236250  )
        57           Zr  tau(  57) = (  0.6154380  0.3496160  0.2608670  )
        58           Cu  tau(  58) = (  0.6163860  0.3829110  0.4899580  )
        59           Zr  tau(  59) = (  0.7406390  0.3425790  0.6748370  )
        60           Zr  tau(  60) = (  0.7412480  0.3575700  0.9376560  )
        61           Cu  tau(  61) = (  0.5350970  0.2943340  0.8319010  )
        62           Zr  tau(  62) = (  0.5219300  0.6602630  0.1802780  )
        63           Cu  tau(  63) = (  0.6764360  0.5422660  0.3511770  )
        64           Cu  tau(  64) = (  0.6518880  0.7490820  0.3811960  )
        65           Zr  tau(  65) = (  0.6685970  0.5790940  0.6194550  )
        66           Cu  tau(  66) = (  0.5727900  0.5080700  0.8178100  )
        67           Cu  tau(  67) = (  0.6643170  0.6087910  0.9696280  )
        68           Cu  tau(  68) = (  0.6453030  0.7910700  0.0288590  )
        69           Cu  tau(  69) = (  0.6369180  0.8868360  0.2400110  )
        70           Zr  tau(  70) = (  0.6303260  0.9759980  0.4397490  )
        71           Cu  tau(  71) = (  0.5295050  0.7794890  0.5795060  )
        72           Cu  tau(  72) = (  0.6242650  0.9611470  0.6522980  )
        73           Zr  tau(  73) = (  0.6264570  0.7657160  0.7858100  )
        74           Cu  tau(  74) = (  0.6866730  0.9527310  0.9360050  )
        75           Cu  tau(  75) = (  0.7980740  0.2687160  0.1298460  )
        76           Zr  tau(  76) = (  1.0111800  0.0294580  0.1891070  )
        77           Zr  tau(  77) = (  0.7674370  0.2250570  0.4300980  )
        78           Cu  tau(  78) = (  0.9704410  0.0880180  0.4356580  )
        79           Zr  tau(  79) = (  0.8233740  0.0724900  0.6018010  )
        80           Cu  tau(  80) = (  0.8934150  0.2197080  0.8001380  )
        81           Zr  tau(  81) = (  0.8687050  0.0849730  0.9774930  )
        82           Zr  tau(  82) = (  0.9982840  0.2941060  0.0350030  )
        83           Zr  tau(  83) = (  0.8616490  0.4609810  0.2520130  )
        84           Cu  tau(  84) = (  0.8132930  0.4350980  0.4791560  )
        85           Zr  tau(  85) = (  0.9981660  0.2752820  0.5806030  )
        86           Cu  tau(  86) = (  0.9756890  0.4038440  0.8175500  )
        87           Zr  tau(  87) = (  0.9133460  0.5484550  0.0248790  )
        88           Zr  tau(  88) = (  0.7753420  0.6984470  0.1916040  )
        89           Al  tau(  89) = (  1.0048900  0.6548750  0.2477300  )
        90           Zr  tau(  90) = (  0.8636860  0.6537190  0.4614320  )
        91           Cu  tau(  91) = (  0.9239290  0.4981350  0.6420570  )
        92           Cu  tau(  92) = (  0.8484040  0.7178360  0.7012020  )
        93           Cu  tau(  93) = (  0.7838010  0.5560280  0.8199790  )
        94           Cu  tau(  94) = (  0.9491700  0.8012760  0.1273720  )
        95           Cu  tau(  95) = (  0.7960670  0.9101280  0.1001260  )
        96           Zr  tau(  96) = (  0.8820060  0.8729030  0.3447760  )
        97           Zr  tau(  97) = (  0.9756070  0.8735870  0.5854800  )
        98           Cu  tau(  98) = (  0.7438140  0.8240090  0.5722210  )
        99           Cu  tau(  99) = (  0.8036460  0.9168100  0.7614030  )
       100           Zr  tau( 100) = (  0.8574510  0.7776480  0.9154230  )

     number of k points=     8  Fermi-Dirac smearing, width (Ry)=  0.0080
                       cart. coord. in units 2pi/alat
        k(    1) = (   0.2500000   0.2500000   0.2450980), wk =   0.2500000
        k(    2) = (   0.2500000   0.2500000  -0.2450980), wk =   0.2500000
        k(    3) = (   0.2500000  -0.2500000   0.2450980), wk =   0.2500000
        k(    4) = (   0.2500000  -0.2500000  -0.2450980), wk =   0.2500000
        k(    5) = (  -0.2500000   0.2500000   0.2450980), wk =   0.2500000
        k(    6) = (  -0.2500000   0.2500000  -0.2450980), wk =   0.2500000
        k(    7) = (  -0.2500000  -0.2500000   0.2450980), wk =   0.2500000
        k(    8) = (  -0.2500000  -0.2500000  -0.2450980), wk =   0.2500000

                       cryst. coord.
        k(    1) = (   0.2500000   0.2500000   0.2500000), wk =   0.2500000
        k(    2) = (   0.2500000   0.2500000  -0.2500000), wk =   0.2500000
        k(    3) = (   0.2500000  -0.2500000   0.2500000), wk =   0.2500000
        k(    4) = (   0.2500000  -0.2500000  -0.2500000), wk =   0.2500000
        k(    5) = (  -0.2500000   0.2500000   0.2500000), wk =   0.2500000
        k(    6) = (  -0.2500000   0.2500000  -0.2500000), wk =   0.2500000
        k(    7) = (  -0.2500000  -0.2500000   0.2500000), wk =   0.2500000
        k(    8) = (  -0.2500000  -0.2500000  -0.2500000), wk =   0.2500000

     Dense  grid:  2681107 G-vectors     FFT dimensions: ( 180, 180, 180)

     Smooth grid:   947955 G-vectors     FFT dimensions: ( 125, 125, 125)

     Dynamical RAM for                 wfc:      81.79 MB

     Dynamical RAM for     wfc (w. buffer):      81.79 MB

     Dynamical RAM for           str. fact:       5.11 MB

     Dynamical RAM for           local pot:       0.00 MB

     Dynamical RAM for          nlocal pot:     134.06 MB

     Dynamical RAM for                qrad:      20.58 MB

     Dynamical RAM for          rho,v,vnew:      11.05 MB

     Dynamical RAM for               rhoin:       3.68 MB

     Dynamical RAM for            rho*nmix:      27.27 MB

     Dynamical RAM for           G-vectors:       6.69 MB

     Dynamical RAM for          h,s,v(r/c):      95.98 MB

     Dynamical RAM for          <psi|beta>:      29.50 MB

     Dynamical RAM for                 psi:     327.18 MB

     Dynamical RAM for                hpsi:     327.18 MB

     Dynamical RAM for                spsi:     327.18 MB

     Dynamical RAM for      wfcinit/wfcrot:     200.46 MB

     Dynamical RAM for           addusdens:     400.59 MB

     Dynamical RAM for          addusforce:     826.28 MB

     Estimated static dynamical RAM per process >     306.96 MB

     Estimated max dynamical RAM per process >       1.38 GB

     Estimated total dynamical RAM >     265.12 GB

     Initial potential from superposition of free atoms

     starting charge 1524.87645, renormalised to 1525.00000
     Starting wfc are 1135 randomized atomic wfcs
     Checking if some PAW data can be deallocated... 
       PAW data deallocated on  188 nodes for type:  1
       PAW data deallocated on   99 nodes for type:  2
       PAW data deallocated on   97 nodes for type:  3

     total cpu time spent up to now is       43.8 secs

     Self-consistent Calculation

     iteration #  1     ecut=    70.00 Ry     beta= 0.40
     Davidson diagonalization with overlap
     ethr =  1.00E-02,  avg # of iterations =  4.0

     total cpu time spent up to now is      257.6 secs

     total energy              =  -38838.38348414 Ry
     Harris-Foulkes estimate   =  -39002.71082469 Ry
     estimated scf accuracy    <     267.26016702 Ry

     iteration #  2     ecut=    70.00 Ry     beta= 0.40
     Davidson diagonalization with overlap
     ethr =  1.00E-02,  avg # of iterations =  3.0

     total cpu time spent up to now is      494.1 secs

     total energy              =  -38880.93116278 Ry
     Harris-Foulkes estimate   =  -39183.17162609 Ry
     estimated scf accuracy    <    1495.33656148 Ry

     iteration #  3     ecut=    70.00 Ry     beta= 0.40
     Davidson diagonalization with overlap
     ethr =  1.00E-02,  avg # of iterations =  3.0

     total cpu time spent up to now is      668.0 secs

     total energy              =  -38946.95721130 Ry
     Harris-Foulkes estimate   =  -39071.18926633 Ry
     estimated scf accuracy    <    1007.06424947 Ry

     iteration #  4     ecut=    70.00 Ry     beta= 0.40
     Davidson diagonalization with overlap
     ethr =  1.00E-02,  avg # of iterations =  3.0

     total cpu time spent up to now is      809.0 secs

     total energy              =  -38990.65873884 Ry
     Harris-Foulkes estimate   =  -39018.43195230 Ry
     estimated scf accuracy    <     194.87344607 Ry

     iteration #  5     ecut=    70.00 Ry     beta= 0.40
     Davidson diagonalization with overlap
     ethr =  1.00E-02,  avg # of iterations =  2.0

     total cpu time spent up to now is      921.8 secs

     total energy              =  -38994.21834417 Ry
     Harris-Foulkes estimate   =  -39003.99200196 Ry
     estimated scf accuracy    <     126.72200586 Ry

     iteration #  6     ecut=    70.00 Ry     beta= 0.40
     Davidson diagonalization with overlap
     ethr =  8.31E-03,  avg # of iterations =  1.0

     total cpu time spent up to now is     1023.6 secs

     total energy              =  -38993.96271137 Ry
     Harris-Foulkes estimate   =  -38999.31245998 Ry
     estimated scf accuracy    <      72.80815152 Ry

     iteration #  7     ecut=    70.00 Ry     beta= 0.40
     Davidson diagonalization with overlap
     ethr =  4.77E-03,  avg # of iterations =  1.0

     total cpu time spent up to now is     1125.2 secs

     total energy              =  -38992.23964899 Ry
     Harris-Foulkes estimate   =  -38995.48973640 Ry
     estimated scf accuracy    <      38.05612261 Ry

     iteration #  8     ecut=    70.00 Ry     beta= 0.40
     Davidson diagonalization with overlap
     ethr =  2.50E-03,  avg # of iterations =  1.0

     total cpu time spent up to now is     1226.8 secs

     total energy              =  -38990.44868457 Ry
     Harris-Foulkes estimate   =  -38993.19958201 Ry
     estimated scf accuracy    <      31.91058377 Ry

     iteration #  9     ecut=    70.00 Ry     beta= 0.40
     Davidson diagonalization with overlap
     ethr =  2.09E-03,  avg # of iterations =  1.0

     total cpu time spent up to now is     1328.6 secs

     total energy              =  -38989.66084882 Ry
     Harris-Foulkes estimate   =  -38991.48951452 Ry
     estimated scf accuracy    <      16.51904784 Ry

     iteration # 10     ecut=    70.00 Ry     beta= 0.40
     Davidson diagonalization with overlap
     ethr =  1.08E-03,  avg # of iterations =  1.0

     total cpu time spent up to now is     1430.3 secs

     total energy              =  -38988.49748106 Ry
     Harris-Foulkes estimate   =  -38990.34744085 Ry
     estimated scf accuracy    <       5.69970622 Ry

     iteration # 11     ecut=    70.00 Ry     beta= 0.40
     Davidson diagonalization with overlap
     ethr =  3.74E-04,  avg # of iterations =  4.4

     total cpu time spent up to now is     1614.1 secs

     total energy              =  -38987.91336182 Ry
     Harris-Foulkes estimate   =  -38991.19762233 Ry
     estimated scf accuracy    <      38.56666115 Ry

     iteration # 12     ecut=    70.00 Ry     beta= 0.40
     Davidson diagonalization with overlap
     ethr =  3.74E-04,  avg # of iterations =  3.0

     total cpu time spent up to now is     1740.7 secs

     total energy              =  -38989.11504491 Ry
     Harris-Foulkes estimate   =  -38990.33484160 Ry
     estimated scf accuracy    <      11.58860514 Ry

     iteration # 13     ecut=    70.00 Ry     beta= 0.40
     Davidson diagonalization with overlap
     ethr =  3.74E-04,  avg # of iterations =  2.8

     total cpu time spent up to now is     1864.9 secs

     total energy              =  -38989.42529462 Ry
     Harris-Foulkes estimate   =  -38990.21626651 Ry
     estimated scf accuracy    <      11.80410698 Ry

     iteration # 14     ecut=    70.00 Ry     beta= 0.40
     Davidson diagonalization with overlap
     ethr =  3.74E-04,  avg # of iterations =  1.0

     total cpu time spent up to now is     1966.5 secs

     total energy              =  -38989.76248168 Ry
     Harris-Foulkes estimate   =  -38989.85197005 Ry
     estimated scf accuracy    <       0.75206381 Ry

     iteration # 15     ecut=    70.00 Ry     beta= 0.40
     Davidson diagonalization with overlap
     ethr =  4.93E-05,  avg # of iterations =  2.8

     total cpu time spent up to now is     2091.3 secs

     total energy              =  -38989.79177351 Ry
     Harris-Foulkes estimate   =  -38989.82797937 Ry
     estimated scf accuracy    <       0.49793189 Ry

     iteration # 16     ecut=    70.00 Ry     beta= 0.40
     Davidson diagonalization with overlap
     ethr =  3.27E-05,  avg # of iterations =  4.2

     total cpu time spent up to now is     2266.9 secs

     total energy              =  -38989.77638168 Ry
     Harris-Foulkes estimate   =  -38989.84753483 Ry
     estimated scf accuracy    <       1.25202427 Ry

     iteration # 17     ecut=    70.00 Ry     beta= 0.40
     Davidson diagonalization with overlap
     ethr =  3.27E-05,  avg # of iterations =  2.5

     total cpu time spent up to now is     2390.0 secs

     total energy              =  -38989.77885055 Ry
     Harris-Foulkes estimate   =  -38989.85037947 Ry
     estimated scf accuracy    <       1.28480095 Ry

     iteration # 18     ecut=    70.00 Ry     beta= 0.40
     Davidson diagonalization with overlap
     ethr =  3.27E-05,  avg # of iterations =  1.0

     total cpu time spent up to now is     2491.6 secs

     total energy              =  -38989.80556102 Ry
     Harris-Foulkes estimate   =  -38989.81774237 Ry
     estimated scf accuracy    <       0.12174030 Ry

     iteration # 19     ecut=    70.00 Ry     beta= 0.40
     Davidson diagonalization with overlap
     ethr =  7.98E-06,  avg # of iterations =  5.5

     total cpu time spent up to now is     2720.2 secs

     total energy              =  -38989.80494027 Ry
     Harris-Foulkes estimate   =  -38989.81575229 Ry
     estimated scf accuracy    <       0.08755787 Ry

     iteration # 20     ecut=    70.00 Ry     beta= 0.40
     Davidson diagonalization with overlap
     ethr =  5.74E-06,  avg # of iterations =  3.2

     total cpu time spent up to now is     2878.6 secs

     total energy              =  -38989.79144732 Ry
     Harris-Foulkes estimate   =  -38989.81459610 Ry
     estimated scf accuracy    <       0.14694992 Ry

     iteration # 21     ecut=    70.00 Ry     beta= 0.40
     Davidson diagonalization with overlap
     ethr =  5.74E-06,  avg # of iterations =  5.2

     total cpu time spent up to now is     3053.8 secs

     total energy              =  -38989.77291501 Ry
     Harris-Foulkes estimate   =  -38989.84298825 Ry
     estimated scf accuracy    <       0.87263429 Ry

     iteration # 22     ecut=    70.00 Ry     beta= 0.40
     Davidson diagonalization with overlap
     ethr =  5.74E-06,  avg # of iterations =  4.8

     total cpu time spent up to now is     3209.2 secs

     total energy              =  -38989.80390684 Ry
     Harris-Foulkes estimate   =  -38989.81472982 Ry
     estimated scf accuracy    <       0.12015428 Ry

     iteration # 23     ecut=    70.00 Ry     beta= 0.40
     Davidson diagonalization with overlap
     ethr =  5.74E-06,  avg # of iterations =  1.0

     total cpu time spent up to now is     3311.0 secs

     total energy              =  -38989.80756146 Ry
     Harris-Foulkes estimate   =  -38989.81158939 Ry
     estimated scf accuracy    <       0.06152619 Ry

     iteration # 24     ecut=    70.00 Ry     beta= 0.40
     Davidson diagonalization with overlap
     ethr =  4.03E-06,  avg # of iterations =  1.0

     total cpu time spent up to now is     3412.5 secs

     total energy              =  -38989.80888349 Ry
     Harris-Foulkes estimate   =  -38989.81046220 Ry
     estimated scf accuracy    <       0.01958371 Ry

     iteration # 25     ecut=    70.00 Ry     beta= 0.40
     Davidson diagonalization with overlap
     ethr =  1.28E-06,  avg # of iterations =  1.0

     total cpu time spent up to now is     3514.1 secs

     total energy              =  -38989.80912111 Ry
     Harris-Foulkes estimate   =  -38989.81034640 Ry
     estimated scf accuracy    <       0.01905925 Ry

     iteration # 26     ecut=    70.00 Ry     beta= 0.40
     Davidson diagonalization with overlap
     ethr =  1.25E-06,  avg # of iterations =  1.0

     total cpu time spent up to now is     3615.9 secs

     total energy              =  -38989.80946767 Ry
     Harris-Foulkes estimate   =  -38989.81012280 Ry
     estimated scf accuracy    <       0.00622720 Ry

     iteration # 27     ecut=    70.00 Ry     beta= 0.40
     Davidson diagonalization with overlap
     ethr =  4.08E-07,  avg # of iterations =  1.0

     total cpu time spent up to now is     3717.6 secs

     total energy              =  -38989.80928348 Ry
     Harris-Foulkes estimate   =  -38989.81019207 Ry
     estimated scf accuracy    <       0.01071032 Ry

     iteration # 28     ecut=    70.00 Ry     beta= 0.40
     Davidson diagonalization with overlap
     ethr =  4.08E-07,  avg # of iterations =  1.0

     total cpu time spent up to now is     3819.4 secs

     total energy              =  -38989.80957324 Ry
     Harris-Foulkes estimate   =  -38989.81006470 Ry
     estimated scf accuracy    <       0.00731782 Ry

     iteration # 29     ecut=    70.00 Ry     beta= 0.40
     Davidson diagonalization with overlap
     ethr =  4.08E-07,  avg # of iterations =  1.0

     total cpu time spent up to now is     3921.8 secs

     total energy              =  -38989.80971454 Ry
     Harris-Foulkes estimate   =  -38989.80993146 Ry
     estimated scf accuracy    <       0.00257501 Ry

     iteration # 30     ecut=    70.00 Ry     beta= 0.40
     Davidson diagonalization with overlap
     ethr =  1.69E-07,  avg # of iterations =  1.0

     total cpu time spent up to now is     4023.5 secs

     total energy              =  -38989.80975169 Ry
     Harris-Foulkes estimate   =  -38989.80991078 Ry
     estimated scf accuracy    <       0.00200787 Ry

     iteration # 31     ecut=    70.00 Ry     beta= 0.40
     Davidson diagonalization with overlap
     ethr =  1.32E-07,  avg # of iterations =  1.0

     total cpu time spent up to now is     4125.1 secs

     total energy              =  -38989.80973155 Ry
     Harris-Foulkes estimate   =  -38989.80994782 Ry
     estimated scf accuracy    <       0.00318888 Ry

     iteration # 32     ecut=    70.00 Ry     beta= 0.40
     Davidson diagonalization with overlap
     ethr =  1.32E-07,  avg # of iterations =  1.0

     total cpu time spent up to now is     4226.8 secs

     total energy              =  -38989.80980353 Ry
     Harris-Foulkes estimate   =  -38989.80988802 Ry
     estimated scf accuracy    <       0.00084145 Ry

     iteration # 33     ecut=    70.00 Ry     beta= 0.40
     Davidson diagonalization with overlap
     ethr =  5.52E-08,  avg # of iterations =  1.0

     total cpu time spent up to now is     4328.4 secs

     total energy              =  -38989.80979275 Ry
     Harris-Foulkes estimate   =  -38989.80989658 Ry
     estimated scf accuracy    <       0.00155852 Ry

     iteration # 34     ecut=    70.00 Ry     beta= 0.40
     Davidson diagonalization with overlap
     ethr =  5.52E-08,  avg # of iterations =  1.0

     total cpu time spent up to now is     4430.3 secs

     total energy              =  -38989.80982511 Ry
     Harris-Foulkes estimate   =  -38989.80987262 Ry
     estimated scf accuracy    <       0.00063358 Ry

     iteration # 35     ecut=    70.00 Ry     beta= 0.40
     Davidson diagonalization with overlap
     ethr =  4.15E-08,  avg # of iterations =  1.0

     total cpu time spent up to now is     4532.1 secs

     total energy              =  -38989.80982877 Ry
     Harris-Foulkes estimate   =  -38989.80987437 Ry
     estimated scf accuracy    <       0.00080133 Ry

     iteration # 36     ecut=    70.00 Ry     beta= 0.40
     Davidson diagonalization with overlap
     ethr =  4.15E-08,  avg # of iterations =  1.0

     total cpu time spent up to now is     4633.4 secs

     total energy              =  -38989.80984368 Ry
     Harris-Foulkes estimate   =  -38989.80986423 Ry
     estimated scf accuracy    <       0.00023799 Ry

     iteration # 37     ecut=    70.00 Ry     beta= 0.40
     Davidson diagonalization with overlap
     ethr =  1.56E-08,  avg # of iterations =  1.0

     total cpu time spent up to now is     4734.7 secs

     total energy              =  -38989.80984392 Ry
     Harris-Foulkes estimate   =  -38989.80986044 Ry
     estimated scf accuracy    <       0.00013234 Ry

     iteration # 38     ecut=    70.00 Ry     beta= 0.40
     Davidson diagonalization with overlap
     ethr =  8.68E-09,  avg # of iterations =  1.0

     total cpu time spent up to now is     4836.3 secs

     total energy              =  -38989.80981886 Ry
     Harris-Foulkes estimate   =  -38989.80989005 Ry
     estimated scf accuracy    <       0.00133660 Ry

     iteration # 39     ecut=    70.00 Ry     beta= 0.40
     Davidson diagonalization with overlap
     ethr =  8.68E-09,  avg # of iterations =  1.0

     total cpu time spent up to now is     4937.8 secs

     total energy              =  -38989.80985227 Ry
     Harris-Foulkes estimate   =  -38989.80985806 Ry
     estimated scf accuracy    <       0.00007499 Ry

     iteration # 40     ecut=    70.00 Ry     beta= 0.40
     Davidson diagonalization with overlap
     ethr =  4.92E-09,  avg # of iterations =  1.0

     total cpu time spent up to now is     5039.4 secs

     total energy              =  -38989.80985322 Ry
     Harris-Foulkes estimate   =  -38989.80985835 Ry
     estimated scf accuracy    <       0.00006948 Ry

     iteration # 41     ecut=    70.00 Ry     beta= 0.40
     Davidson diagonalization with overlap
     ethr =  4.56E-09,  avg # of iterations =  1.0

     total cpu time spent up to now is     5141.6 secs

     total energy              =  -38989.80985374 Ry
     Harris-Foulkes estimate   =  -38989.80985855 Ry
     estimated scf accuracy    <       0.00006728 Ry

     iteration # 42     ecut=    70.00 Ry     beta= 0.40
     Davidson diagonalization with overlap
     ethr =  4.41E-09,  avg # of iterations =  1.0

     total cpu time spent up to now is     5243.2 secs

     total energy              =  -38989.80985504 Ry
     Harris-Foulkes estimate   =  -38989.80985743 Ry
     estimated scf accuracy    <       0.00002722 Ry

     iteration # 43     ecut=    70.00 Ry     beta= 0.40
     Davidson diagonalization with overlap
     ethr =  1.78E-09,  avg # of iterations =  1.0

     total cpu time spent up to now is     5344.8 secs

     total energy              =  -38989.80985424 Ry
     Harris-Foulkes estimate   =  -38989.80985808 Ry
     estimated scf accuracy    <       0.00005254 Ry

     iteration # 44     ecut=    70.00 Ry     beta= 0.40
     Davidson diagonalization with overlap
     ethr =  1.78E-09,  avg # of iterations =  1.0

     total cpu time spent up to now is     5446.4 secs

     total energy              =  -38989.80985445 Ry
     Harris-Foulkes estimate   =  -38989.80985824 Ry
     estimated scf accuracy    <       0.00005806 Ry

     iteration # 45     ecut=    70.00 Ry     beta= 0.40
     Davidson diagonalization with overlap
     ethr =  1.78E-09,  avg # of iterations =  1.0

     total cpu time spent up to now is     5548.0 secs

     total energy              =  -38989.80985510 Ry
     Harris-Foulkes estimate   =  -38989.80985800 Ry
     estimated scf accuracy    <       0.00005208 Ry

     iteration # 46     ecut=    70.00 Ry     beta= 0.40
     Davidson diagonalization with overlap
     ethr =  1.78E-09,  avg # of iterations =  1.0

     total cpu time spent up to now is     5650.0 secs

     total energy              =  -38989.80985632 Ry
     Harris-Foulkes estimate   =  -38989.80985709 Ry
     estimated scf accuracy    <       0.00000889 Ry

     iteration # 47     ecut=    70.00 Ry     beta= 0.40
     Davidson diagonalization with overlap
     ethr =  5.83E-10,  avg # of iterations =  1.0

     total cpu time spent up to now is     5752.0 secs

     total energy              =  -38989.80985653 Ry
     Harris-Foulkes estimate   =  -38989.80985695 Ry
     estimated scf accuracy    <       0.00000524 Ry

     iteration # 48     ecut=    70.00 Ry     beta= 0.40
     Davidson diagonalization with overlap
     ethr =  3.44E-10,  avg # of iterations =  1.0

     total cpu time spent up to now is     5853.7 secs

     total energy              =  -38989.80985606 Ry
     Harris-Foulkes estimate   =  -38989.80985733 Ry
     estimated scf accuracy    <       0.00001927 Ry

     iteration # 49     ecut=    70.00 Ry     beta= 0.40
     Davidson diagonalization with overlap
     ethr =  3.44E-10,  avg # of iterations =  1.0

     total cpu time spent up to now is     5955.3 secs

     total energy              =  -38989.80985645 Ry
     Harris-Foulkes estimate   =  -38989.80985710 Ry
     estimated scf accuracy    <       0.00001111 Ry

     iteration # 50     ecut=    70.00 Ry     beta= 0.40
     Davidson diagonalization with overlap
     ethr =  3.44E-10,  avg # of iterations =  1.0

     total cpu time spent up to now is     6057.3 secs

     total energy              =  -38989.80985670 Ry
     Harris-Foulkes estimate   =  -38989.80985695 Ry
     estimated scf accuracy    <       0.00000328 Ry

     iteration # 51     ecut=    70.00 Ry     beta= 0.40
     Davidson diagonalization with overlap
     ethr =  2.15E-10,  avg # of iterations =  1.0

     total cpu time spent up to now is     6159.0 secs

     total energy              =  -38989.80985675 Ry
     Harris-Foulkes estimate   =  -38989.80985693 Ry
     estimated scf accuracy    <       0.00000237 Ry

     iteration # 52     ecut=    70.00 Ry     beta= 0.40
     Davidson diagonalization with overlap
     ethr =  1.55E-10,  avg # of iterations =  1.0

     total cpu time spent up to now is     6260.6 secs

     total energy              =  -38989.80985681 Ry
     Harris-Foulkes estimate   =  -38989.80985691 Ry
     estimated scf accuracy    <       0.00000138 Ry

     iteration # 53     ecut=    70.00 Ry     beta= 0.40
     Davidson diagonalization with overlap
     ethr =  9.02E-11,  avg # of iterations =  1.0

     total cpu time spent up to now is     6362.6 secs

     total energy              =  -38989.80985678 Ry
     Harris-Foulkes estimate   =  -38989.80985695 Ry
     estimated scf accuracy    <       0.00000230 Ry

     iteration # 54     ecut=    70.00 Ry     beta= 0.40
     Davidson diagonalization with overlap
     ethr =  9.02E-11,  avg # of iterations =  1.0

     total cpu time spent up to now is     6464.1 secs

     total energy              =  -38989.80985678 Ry
     Harris-Foulkes estimate   =  -38989.80985697 Ry
     estimated scf accuracy    <       0.00000293 Ry

     iteration # 55     ecut=    70.00 Ry     beta= 0.40
     Davidson diagonalization with overlap
     ethr =  9.02E-11,  avg # of iterations =  1.0

     total cpu time spent up to now is     6565.9 secs

     total energy              =  -38989.80985681 Ry
     Harris-Foulkes estimate   =  -38989.80985696 Ry
     estimated scf accuracy    <       0.00000274 Ry

     iteration # 56     ecut=    70.00 Ry     beta= 0.40
     Davidson diagonalization with overlap
     ethr =  9.02E-11,  avg # of iterations =  1.0

     total cpu time spent up to now is     6667.3 secs

     End of self-consistent calculation

          k = 0.2500 0.2500 0.2451 (118458 PWs)   bands (ev):

   -98.9082 -98.8801 -98.7830 -98.7782 -98.7770 -98.7713 -98.7384 -98.7320
   -98.7248 -98.7207 -98.7024 -98.6944 -98.6934 -98.6911 -98.6826 -98.6786
   -98.6715 -98.6594 -98.6590 -98.6569 -98.6440 -98.6337 -98.6330 -98.6282
   -98.6153 -98.6007 -98.5765 -98.5718 -98.5628 -98.5592 -98.5348 -98.5267
   -98.5214 -98.5202 -98.5098 -98.4722 -98.4706 -98.4611 -98.4434 -98.4377
   -98.4336 -98.4310 -98.4240 -98.4075 -98.3990 -98.3940 -98.3899 -98.3648
   -98.3326 -56.2984 -56.2858 -56.2559 -56.2229 -56.2061 -56.1836 -56.1823
   -56.1808 -56.1694 -56.1564 -56.1498 -56.1448 -56.1277 -56.1275 -56.1023
   -56.0986 -56.0981 -56.0960 -56.0949 -56.0892 -56.0879 -56.0864 -56.0824
   -56.0805 -56.0736 -56.0655 -56.0632 -56.0623 -56.0622 -56.0612 -56.0587
   -56.0582 -56.0546 -56.0545 -56.0531 -56.0506 -56.0506 -56.0503 -56.0400
   -56.0396 -56.0345 -56.0298 -56.0286 -56.0284 -56.0242 -56.0240 -56.0115
   -56.0054 -56.0048 -56.0037 -56.0010 -55.9971 -55.9965 -55.9964 -55.9923
   -55.9898 -55.9877 -55.9856 -55.9828 -55.9825 -55.9666 -55.9650 -55.9640
   -55.9633 -55.9632 -55.9592 -55.9568 -55.9541 -55.9490 -55.9431 -55.9428
   -55.9410 -55.9385 -55.9372 -55.9344 -55.9341 -55.9315 -55.9298 -55.9256
   -55.9255 -55.9200 -55.9193 -55.9084 -55.9064 -55.9027 -55.9027 -55.8965
   -55.8922 -55.8889 -55.8866 -55.8840 -55.8816 -55.8732 -55.8634 -55.8633
   -55.8594 -55.8537 -55.8496 -55.8485 -55.8475 -55.8432 -55.8387 -55.8384
   -55.8341 -55.8336 -55.8306 -55.8238 -55.8221 -55.8206 -55.8204 -55.8164
   -55.8135 -55.8104 -55.8048 -55.7980 -55.7954 -55.7884 -55.7876 -55.7868
   -55.7843 -55.7808 -55.7718 -55.7696 -55.7661 -55.7624 -55.7589 -55.7576
   -55.7503 -55.7500 -55.7444 -55.7412 -55.7401 -55.7309 -55.7302 -55.7299
   -55.7203 -55.7168 -55.7108 -55.7093 -55.7045 -55.6944 -55.6903 -55.6864
   -55.6822 -55.6741 -55.6705 -55.6506 -34.7587 -34.6040 -34.5655 -34.5579
   -34.5545 -34.4836 -34.4742 -34.4708 -34.4654 -34.4617 -34.4605 -34.4555
   -34.4507 -34.4465 -34.4356 -34.4114 -34.3997 -34.3914 -34.3894 -34.3810
   -34.3805 -34.3642 -34.3603 -34.3572 -34.3540 -34.3496 -34.3432 -34.3389
   -34.3184 -34.3145 -34.3112 -34.3072 -34.3023 -34.2853 -34.2779 -34.2718
   -34.2459 -34.2424 -34.2360 -34.2080 -34.2050 -34.1971 -34.1764 -34.1411
   -34.1100 -34.1015 -34.0760 -33.9657 -33.8822 -12.8288 -12.8250 -12.8042
   -12.7970 -12.7900 -12.7855 -12.7837 -12.7644 -12.7619 -12.7526 -12.7488
   -12.7351 -12.7294 -12.7261 -12.7225 -12.7153 -12.7136 -12.7073 -12.7038
   -12.6988 -12.6938 -12.6909 -12.6795 -12.6721 -12.6675 -12.6627 -12.6553
   -12.6497 -12.6477 -12.6416 -12.6353 -12.6327 -12.6242 -12.6206 -12.6176
   -12.6139 -12.6117 -12.6057 -12.5959 -12.5910 -12.5882 -12.5859 -12.5749
   -12.5731 -12.5685 -12.5658 -12.5573 -12.5530 -12.5461 -12.5434 -12.5404
   -12.5325 -12.5302 -12.5252 -12.5145 -12.5127 -12.5055 -12.5001 -12.4986
   -12.4907 -12.4845 -12.4821 -12.4755 -12.4699 -12.4629 -12.4570 -12.4532
   -12.4471 -12.4414 -12.4394 -12.4337 -12.4297 -12.4202 -12.4159 -12.4098
   -12.4043 -12.3964 -12.3918 -12.3866 -12.3834 -12.3743 -12.3719 -12.3676
   -12.3635 -12.3568 -12.3509 -12.3460 -12.3402 -12.3385 -12.3305 -12.3278
   -12.3211 -12.3159 -12.3060 -12.3032 -12.2953 -12.2885 -12.2811 -12.2792
   -12.2761 -12.2735 -12.2687 -12.2635 -12.2556 -12.2528 -12.2476 -12.2423
   -12.2404 -12.2339 -12.2227 -12.2146 -12.2129 -12.2076 -12.1977 -12.1928
   -12.1873 -12.1839 -12.1728 -12.1678 -12.1597 -12.1575 -12.1523 -12.1453
   -12.1411 -12.1370 -12.1240 -12.1206 -12.1154 -12.1002 -12.0783 -12.0760
   -12.0579 -12.0540 -12.0503 -12.0405 -12.0179 -12.0136 -11.9760 -11.9566
   -11.9342 -11.9118 -11.9024 -11.8842 -11.8634 -11.8147 -11.7842 -11.7386
     7.0760   7.4102   7.5829   7.8919   8.0732   8.1956   8.4219   8.5685
     8.6281   8.7151   8.8990   9.0007   9.0579   9.1274   9.2045   9.3475
     9.4156   9.4856   9.5071   9.6515   9.6709   9.7367   9.7857   9.8094
     9.8542   9.9001   9.9202   9.9625  10.0077  10.0449  10.0681  10.0766
    10.1039  10.1274  10.1425  10.1499  10.1597  10.1909  10.2001  10.2154
    10.2251  10.2347  10.2539  10.2634  10.2728  10.2974  10.3078  10.3120
    10.3225  10.3405  10.3600  10.3644  10.3771  10.3862  10.3891  10.4084
    10.4222  10.4271  10.4363  10.4404  10.4499  10.4607  10.4680  10.4766
    10.4897  10.4977  10.5073  10.5152  10.5219  10.5339  10.5404  10.5441
    10.5532  10.5668  10.5698  10.5791  10.5842  10.5909  10.6048  10.6075
    10.6130  10.6219  10.6262  10.6383  10.6443  10.6486  10.6562  10.6620
    10.6677  10.6752  10.6814  10.6889  10.7049  10.7100  10.7190  10.7238
    10.7301  10.7399  10.7464  10.7528  10.7561  10.7619  10.7679  10.7719
    10.7786  10.7867  10.7918  10.8032  10.8075  10.8153  10.8199  10.8245
    10.8316  10.8358  10.8441  10.8501  10.8605  10.8674  10.8729  10.8757
    10.8879  10.8960  10.9027  10.9065  10.9094  10.9126  10.9280  10.9348
    10.9441  10.9470  10.9538  10.9604  10.9633  10.9680  10.9699  10.9815
    10.9862  10.9972  11.0011  11.0134  11.0175  11.0226  11.0282  11.0318
    11.0356  11.0409  11.0474  11.0512  11.0587  11.0684  11.0743  11.0778
    11.0856  11.0922  11.0989  11.1073  11.1102  11.1175  11.1254  11.1320
    11.1376  11.1473  11.1494  11.1513  11.1598  11.1633  11.1707  11.1804
    11.1840  11.1902  11.1995  11.2048  11.2137  11.2183  11.2275  11.2335
    11.2389  11.2420  11.2517  11.2585  11.2625  11.2735  11.2784  11.2839
    11.2944  11.2956  11.3037  11.3138  11.3204  11.3306  11.3406  11.3519
    11.3553  11.3578  11.3714  11.3743  11.3796  11.3836  11.3961  11.4016
    11.4073  11.4120  11.4251  11.4351  11.4429  11.4479  11.4501  11.4618
    11.4687  11.4851  11.4893  11.4969  11.5034  11.5155  11.5236  11.5321
    11.5332  11.5388  11.5452  11.5570  11.5663  11.5743  11.5857  11.5933
    11.5972  11.6025  11.6144  11.6229  11.6333  11.6374  11.6483  11.6542
    11.6588  11.6660  11.6749  11.6848  11.6923  11.7053  11.7097  11.7219
    11.7323  11.7439  11.7509  11.7567  11.7650  11.7733  11.7828  11.7994
    11.8077  11.8161  11.8310  11.8364  11.8442  11.8601  11.8693  11.8761
    11.8878  11.8901  11.9016  11.9133  11.9260  11.9293  11.9430  11.9573
    11.9681  11.9808  11.9907  12.0071  12.0170  12.0347  12.0437  12.0606
    12.0687  12.0939  12.1046  12.1243  12.1401  12.1588  12.1789  12.1938
    12.2131  12.2402  12.2595  12.2896  12.3160  12.3407  12.3811  12.3912
    12.4429  12.4757  12.5047  12.5133  12.5831  12.5967  12.6280  12.6781
    12.6842  12.7144  12.7450  12.7647  12.8250  12.8619  12.8988  12.9139
    12.9551  12.9898  13.0218  13.0555  13.0880  13.1089  13.1371  13.1526
    13.1687  13.2142  13.2374  13.2769  13.2812  13.3358  13.3621  13.3742
    13.3874  13.4229  13.4449  13.4740  13.5016  13.5303  13.5539  13.5770
    13.5964  13.6261  13.6493  13.6722  13.6855  13.6989  13.7240  13.7483
    13.7676  13.7940  13.8027  13.8240  13.8532  13.8583  13.8695  13.8919
    13.9202  13.9301  13.9523  13.9787  13.9892  14.0324  14.0431  14.0530
    14.0750  14.1067  14.1222  14.1361  14.1582  14.1816  14.2006  14.2157
    14.2304  14.2475  14.2744  14.2854  14.3071  14.3316  14.3492  14.3687
    14.3928  14.4156  14.4273  14.4571  14.4698  14.4911  14.4970  14.5106
    14.5265  14.5506  14.5780  14.5803  14.6001  14.6220  14.6353  14.6548
    14.6800  14.7027  14.7110  14.7418  14.7536  14.7633  14.7840  14.8047
    14.8160  14.8479  14.8676  14.8901  14.9131  14.9433  14.9573  14.9924
    14.9987  15.0198  15.0473  15.0577  15.0754  15.1006  15.1139  15.1485
    15.1631  15.1915  15.2192  15.2460  15.2865  15.3257  15.3387  15.3641
    15.3805  15.3993  15.4202  15.4365  15.4790  15.5149  15.5426  15.5644
    15.5859  15.6158  15.6658  15.6840  15.7112  15.7424  15.7644  15.8038
    15.8306  15.8455  15.8687  15.9203  15.9422  15.9857  16.0324  16.0472
    16.0848  16.1014  16.1312  16.1508  16.1929  16.2364  16.2799  16.3259
    16.3340  16.3714  16.4050  16.4300  16.4592  16.4706  16.5149  16.5304
    16.5880  16.6027  16.6394  16.6744  16.6983  16.7276  16.7415  16.7668
    16.7912  16.8325  16.8697  16.9087  16.9293  16.9475  16.9711  17.0015
    17.0317  17.0587  17.0816  17.1129  17.1367  17.1658  17.1904  17.2235
    17.2486  17.2800  17.3033  17.3279  17.3460  17.3791  17.4086  17.4408
    17.4549  17.4930  17.5122  17.5372  17.5581  17.5871  17.6041  17.6332
    17.6630  17.6802  17.7112  17.7481  17.7749  17.7922  17.8181  17.8569
    17.8594  17.8806  17.9191  17.9245  17.9516  17.9729  17.9985  18.0191
    18.0481  18.0565  18.0825  18.1054  18.1490  18.1687  18.2191  18.2252
    18.2419  18.2674  18.2878  18.3063  18.3443  18.3722  18.4039  18.4274
    18.4428  18.4726  18.5338  18.5439  18.5914  18.6145  18.6438  18.6704
    18.7106  18.7243  18.7610  18.8179  18.8242  18.8683  18.8860  18.9231
    18.9794  18.9968  19.0277  19.0774  19.1258  19.1738  19.2038  19.2266
    19.2692  19.3106  19.3442  19.4105  19.4247  19.4543  19.5302  19.6298
    19.6723  19.6823  19.7146  19.7816  19.8193  19.9173  19.9484  20.0128
    20.0702  20.1320  20.1601  20.2078  20.2838  20.3068  20.3442  20.3868
    20.4343  20.5065  20.5892  20.6203  20.6755  20.7055  20.7566  20.8033
    20.8419  20.8715  20.9429  20.9975  21.0290  21.0725  21.1345  21.1478
    21.2157  21.2497  21.2963  21.3564  21.3620  21.3947  21.4678  21.5192
    21.5588  21.5818  21.6012  21.6395  21.7014  21.7440  21.8182  21.8530
    21.8885  21.9135  21.9765  21.9985  22.0301  22.0799  22.1038  22.1592
    22.1907  22.2231  22.2866  22.3385  22.3776  22.4102  22.4360  22.4661
    22.5109  22.5406  22.5841  22.6426  22.6837  22.7134  22.7388  22.7806
    22.8075  22.8390  22.8730  22.9154  22.9778  23.0045  23.0541  23.0937
    23.1195  23.1798  23.2113  23.2420  23.2726  23.2853  23.3029  23.3680
    23.4097  23.4329  23.4955  23.5589  23.5743  23.6334  23.6527  23.6847
    23.7226  23.7675  23.7979  23.8276  23.8569  23.8986  23.9289  23.9386
    23.9964  24.0416  24.0696  24.1137  24.1315  24.1956  24.2319  24.2706
    24.2957  24.3294  24.3640  24.3727  24.4139  24.4783  24.5168  24.5260
    24.5685  24.6621  24.6832  24.7131  24.7555  24.7734  24.8399  24.8804
    24.9082  24.9219  24.9622  24.9965  25.0113  25.0623

     occupation numbers 
     1.0000   1.0000   1.0000   1.0000   1.0000   1.0000   1.0000   1.0000
     1.0000   1.0000   1.0000   1.0000   1.0000   1.0000   1.0000   1.0000
     1.0000   1.0000   1.0000   1.0000   1.0000   1.0000   1.0000   1.0000
     1.0000   1.0000   1.0000   1.0000   1.0000   1.0000   1.0000   1.0000
     1.0000   1.0000   1.0000   1.0000   1.0000   1.0000   1.0000   1.0000
     1.0000   1.0000   1.0000   1.0000   1.0000   1.0000   1.0000   1.0000
     1.0000   1.0000   1.0000   1.0000   1.0000   1.0000   1.0000   1.0000
     1.0000   1.0000   1.0000   1.0000   1.0000   1.0000   1.0000   1.0000
     1.0000   1.0000   1.0000   1.0000   1.0000   1.0000   1.0000   1.0000
     1.0000   1.0000   1.0000   1.0000   1.0000   1.0000   1.0000   1.0000
     1.0000   1.0000   1.0000   1.0000   1.0000   1.0000   1.0000   1.0000
     1.0000   1.0000   1.0000   1.0000   1.0000   1.0000   1.0000   1.0000
     1.0000   1.0000   1.0000   1.0000   1.0000   1.0000   1.0000   1.0000
     1.0000   1.0000   1.0000   1.0000   1.0000   1.0000   1.0000   1.0000
     1.0000   1.0000   1.0000   1.0000   1.0000   1.0000   1.0000   1.0000
     1.0000   1.0000   1.0000   1.0000   1.0000   1.0000   1.0000   1.0000
     1.0000   1.0000   1.0000   1.0000   1.0000   1.0000   1.0000   1.0000
     1.0000   1.0000   1.0000   1.0000   1.0000   1.0000   1.0000   1.0000
     1.0000   1.0000   1.0000   1.0000   1.0000   1.0000   1.0000   1.0000
     1.0000   1.0000   1.0000   1.0000   1.0000   1.0000   1.0000   1.0000
     1.0000   1.0000   1.0000   1.0000   1.0000   1.0000   1.0000   1.0000
     1.0000   1.0000   1.0000   1.0000   1.0000   1.0000   1.0000   1.0000
     1.0000   1.0000   1.0000   1.0000   1.0000   1.0000   1.0000   1.0000
     1.0000   1.0000   1.0000   1.0000   1.0000   1.0000   1.0000   1.0000
     1.0000   1.0000   1.0000   1.0000   1.0000   1.0000   1.0000   1.0000
     1.0000   1.0000   1.0000   1.0000   1.0000   1.0000   1.0000   1.0000
     1.0000   1.0000   1.0000   1.0000   1.0000   1.0000   1.0000   1.0000
     1.0000   1.0000   1.0000   1.0000   1.0000   1.0000   1.0000   1.0000
     1.0000   1.0000   1.0000   1.0000   1.0000   1.0000   1.0000   1.0000
     1.0000   1.0000   1.0000   1.0000   1.0000   1.0000   1.0000   1.0000
     1.0000   1.0000   1.0000   1.0000   1.0000   1.0000   1.0000   1.0000
     1.0000   1.0000   1.0000   1.0000   1.0000   1.0000   1.0000   1.0000
     1.0000   1.0000   1.0000   1.0000   1.0000   1.0000   1.0000   1.0000
     1.0000   1.0000   1.0000   1.0000   1.0000   1.0000   1.0000   1.0000
     1.0000   1.0000   1.0000   1.0000   1.0000   1.0000   1.0000   1.0000
     1.0000   1.0000   1.0000   1.0000   1.0000   1.0000   1.0000   1.0000
     1.0000   1.0000   1.0000   1.0000   1.0000   1.0000   1.0000   1.0000
     1.0000   1.0000   1.0000   1.0000   1.0000   1.0000   1.0000   1.0000
     1.0000   1.0000   1.0000   1.0000   1.0000   1.0000   1.0000   1.0000
     1.0000   1.0000   1.0000   1.0000   1.0000   1.0000   1.0000   1.0000
     1.0000   1.0000   1.0000   1.0000   1.0000   1.0000   1.0000   1.0000
     1.0000   1.0000   1.0000   1.0000   1.0000   1.0000   1.0000   1.0000
     1.0000   1.0000   1.0000   1.0000   1.0000   1.0000   1.0000   1.0000
     1.0000   1.0000   1.0000   1.0000   1.0000   1.0000   1.0000   1.0000
     1.0000   1.0000   1.0000   1.0000   1.0000   1.0000   1.0000   1.0000
     1.0000   1.0000   1.0000   1.0000   1.0000   1.0000   1.0000   1.0000
     1.0000   1.0000   1.0000   1.0000   1.0000   1.0000   1.0000   1.0000
     1.0000   1.0000   1.0000   1.0000   1.0000   1.0000   1.0000   1.0000
     1.0000   1.0000   1.0000   1.0000   1.0000   1.0000   1.0000   1.0000
     1.0000   1.0000   1.0000   1.0000   1.0000   1.0000   1.0000   1.0000
     1.0000   1.0000   1.0000   1.0000   1.0000   1.0000   1.0000   1.0000
     1.0000   1.0000   1.0000   1.0000   1.0000   1.0000   1.0000   1.0000
     1.0000   1.0000   1.0000   1.0000   1.0000   1.0000   1.0000   1.0000
     1.0000   1.0000   1.0000   1.0000   1.0000   1.0000   1.0000   1.0000
     1.0000   1.0000   1.0000   1.0000   1.0000   1.0000   1.0000   1.0000
     1.0000   1.0000   1.0000   1.0000   1.0000   1.0000   1.0000   1.0000
     1.0000   1.0000   1.0000   1.0000   1.0000   1.0000   1.0000   1.0000
     1.0000   1.0000   1.0000   1.0000   1.0000   1.0000   1.0000   1.0000
     1.0000   1.0000   1.0000   1.0000   1.0000   1.0000   1.0000   1.0000
     1.0000   1.0000   1.0000   1.0000   1.0000   1.0000   1.0000   1.0000
     1.0000   1.0000   1.0000   1.0000   1.0000   1.0000   1.0000   1.0000
     1.0000   1.0000   1.0000   1.0000   1.0000   1.0000   1.0000   1.0000
     1.0000   1.0000   1.0000   1.0000   1.0000   1.0000   1.0000   1.0000
     1.0000   1.0000   1.0000   1.0000   1.0000   1.0000   1.0000   1.0000
     1.0000   1.0000   1.0000   1.0000   1.0000   1.0000   1.0000   1.0000
     1.0000   1.0000   1.0000   1.0000   1.0000   1.0000   1.0000   1.0000
     1.0000   1.0000   1.0000   1.0000   1.0000   1.0000   1.0000   1.0000
     1.0000   1.0000   1.0000   1.0000   1.0000   1.0000   1.0000   1.0000
     1.0000   1.0000   1.0000   1.0000   1.0000   1.0000   1.0000   1.0000
     1.0000   1.0000   1.0000   1.0000   1.0000   1.0000   1.0000   1.0000
     1.0000   1.0000   1.0000   1.0000   1.0000   1.0000   1.0000   1.0000
     1.0000   1.0000   1.0000   1.0000   1.0000   1.0000   1.0000   1.0000
     1.0000   1.0000   1.0000   1.0000   1.0000   1.0000   1.0000   1.0000
     1.0000   1.0000   1.0000   1.0000   1.0000   1.0000   1.0000   1.0000
     1.0000   1.0000   1.0000   1.0000   1.0000   1.0000   1.0000   1.0000
     1.0000   1.0000   1.0000   1.0000   1.0000   1.0000   1.0000   1.0000
     1.0000   1.0000   1.0000   1.0000   1.0000   1.0000   1.0000   1.0000
     1.0000   1.0000   1.0000   1.0000   1.0000   1.0000   1.0000   1.0000
     1.0000   1.0000   1.0000   1.0000   1.0000   1.0000   1.0000   1.0000
     1.0000   1.0000   1.0000   1.0000   1.0000   1.0000   1.0000   1.0000
     1.0000   1.0000   1.0000   1.0000   1.0000   1.0000   1.0000   1.0000
     1.0000   1.0000   1.0000   1.0000   1.0000   1.0000   1.0000   1.0000
     1.0000   1.0000   1.0000   1.0000   1.0000   1.0000   1.0000   1.0000
     1.0000   1.0000   1.0000   1.0000   1.0000   1.0000   1.0000   1.0000
     1.0000   1.0000   1.0000   1.0000   1.0000   1.0000   1.0000   1.0000
     1.0000   1.0000   1.0000   1.0000   1.0000   1.0000   1.0000   1.0000
     1.0000   1.0000   1.0000   1.0000   1.0000   1.0000   1.0000   1.0000
     1.0000   1.0000   1.0000   1.0000   1.0000   1.0000   1.0000   1.0000
     1.0000   1.0000   1.0000   1.0000   1.0000   1.0000   0.9999   0.9999
     0.9999   0.9999   0.9999   0.9998   0.9998   0.9997   0.9997   0.9996
     0.9995   0.9993   0.9992   0.9990   0.9988   0.9987   0.9983   0.9979
     0.9975   0.9968   0.9966   0.9958   0.9946   0.9943   0.9937   0.9923
     0.9900   0.9891   0.9866   0.9830   0.9813   0.9725   0.9697   0.9669
     0.9598   0.9469   0.9393   0.9316   0.9174   0.8997   0.8828   0.8676
     0.8512   0.8302   0.7926   0.7755   0.7389   0.6931   0.6578   0.6164
     0.5628   0.5109   0.4840   0.4163   0.3883   0.3428   0.3307   0.3037
     0.2738   0.2320   0.1902   0.1869   0.1609   0.1355   0.1218   0.1039
     0.0842   0.0695   0.0648   0.0496   0.0447   0.0410   0.0342   0.0284
     0.0257   0.0193   0.0162   0.0132   0.0107   0.0081   0.0072   0.0052
     0.0049   0.0040   0.0031   0.0029   0.0024   0.0019   0.0017   0.0012
     0.0011   0.0008   0.0006   0.0005   0.0003   0.0002   0.0002   0.0002
     0.0001   0.0001   0.0001   0.0001   0.0001   0.0000   0.0000   0.0000
     0.0000   0.0000   0.0000   0.0000   0.0000   0.0000   0.0000   0.0000
     0.0000   0.0000   0.0000   0.0000   0.0000   0.0000   0.0000   0.0000
     0.0000   0.0000   0.0000   0.0000   0.0000   0.0000   0.0000   0.0000
     0.0000   0.0000   0.0000   0.0000   0.0000   0.0000   0.0000   0.0000
     0.0000   0.0000   0.0000   0.0000   0.0000   0.0000   0.0000   0.0000
     0.0000   0.0000   0.0000   0.0000   0.0000   0.0000   0.0000   0.0000
     0.0000   0.0000   0.0000   0.0000   0.0000   0.0000   0.0000   0.0000
     0.0000   0.0000   0.0000   0.0000   0.0000   0.0000   0.0000   0.0000
     0.0000   0.0000   0.0000   0.0000   0.0000   0.0000   0.0000   0.0000
     0.0000   0.0000   0.0000   0.0000   0.0000   0.0000   0.0000   0.0000
     0.0000   0.0000   0.0000   0.0000   0.0000   0.0000   0.0000   0.0000
     0.0000   0.0000   0.0000   0.0000   0.0000   0.0000   0.0000   0.0000
     0.0000   0.0000   0.0000   0.0000   0.0000   0.0000   0.0000   0.0000
     0.0000   0.0000   0.0000   0.0000   0.0000   0.0000   0.0000   0.0000
     0.0000   0.0000   0.0000   0.0000   0.0000   0.0000   0.0000   0.0000
     0.0000   0.0000   0.0000   0.0000   0.0000   0.0000   0.0000   0.0000
     0.0000   0.0000   0.0000   0.0000   0.0000   0.0000   0.0000   0.0000
     0.0000   0.0000   0.0000   0.0000   0.0000   0.0000   0.0000   0.0000
     0.0000   0.0000   0.0000   0.0000   0.0000   0.0000   0.0000   0.0000
     0.0000   0.0000   0.0000   0.0000   0.0000   0.0000   0.0000   0.0000
     0.0000   0.0000   0.0000   0.0000   0.0000   0.0000   0.0000   0.0000
     0.0000   0.0000   0.0000   0.0000   0.0000   0.0000   0.0000   0.0000
     0.0000   0.0000   0.0000   0.0000   0.0000   0.0000   0.0000   0.0000
     0.0000   0.0000   0.0000   0.0000   0.0000   0.0000   0.0000   0.0000
     0.0000   0.0000   0.0000   0.0000   0.0000   0.0000   0.0000   0.0000
     0.0000   0.0000   0.0000   0.0000   0.0000   0.0000   0.0000   0.0000
     0.0000   0.0000   0.0000   0.0000   0.0000   0.0000   0.0000   0.0000
     0.0000   0.0000   0.0000   0.0000   0.0000   0.0000   0.0000   0.0000
     0.0000   0.0000   0.0000   0.0000   0.0000   0.0000   0.0000   0.0000
     0.0000   0.0000   0.0000   0.0000   0.0000   0.0000   0.0000   0.0000
     0.0000   0.0000   0.0000   0.0000   0.0000   0.0000   0.0000   0.0000
     0.0000   0.0000   0.0000   0.0000   0.0000   0.0000   0.0000   0.0000
     0.0000   0.0000   0.0000   0.0000   0.0000   0.0000   0.0000   0.0000
     0.0000   0.0000   0.0000   0.0000   0.0000   0.0000

          k = 0.2500 0.2500-0.2451 (118458 PWs)   bands (ev):

   -98.9082 -98.8801 -98.7830 -98.7782 -98.7770 -98.7713 -98.7384 -98.7320
   -98.7248 -98.7207 -98.7024 -98.6944 -98.6934 -98.6911 -98.6826 -98.6786
   -98.6715 -98.6594 -98.6590 -98.6569 -98.6440 -98.6337 -98.6330 -98.6282
   -98.6153 -98.6007 -98.5765 -98.5717 -98.5627 -98.5592 -98.5348 -98.5267
   -98.5214 -98.5202 -98.5098 -98.4722 -98.4706 -98.4611 -98.4434 -98.4377
   -98.4336 -98.4310 -98.4240 -98.4075 -98.3990 -98.3940 -98.3899 -98.3648
   -98.3326 -56.2984 -56.2858 -56.2559 -56.2229 -56.2061 -56.1836 -56.1823
   -56.1808 -56.1694 -56.1564 -56.1498 -56.1448 -56.1276 -56.1275 -56.1023
   -56.0986 -56.0981 -56.0960 -56.0949 -56.0892 -56.0879 -56.0864 -56.0824
   -56.0805 -56.0736 -56.0655 -56.0632 -56.0623 -56.0622 -56.0612 -56.0587
   -56.0582 -56.0546 -56.0545 -56.0531 -56.0506 -56.0506 -56.0503 -56.0400
   -56.0396 -56.0345 -56.0298 -56.0286 -56.0284 -56.0242 -56.0240 -56.0115
   -56.0054 -56.0048 -56.0037 -56.0010 -55.9971 -55.9964 -55.9964 -55.9923
   -55.9898 -55.9877 -55.9856 -55.9828 -55.9825 -55.9666 -55.9650 -55.9640
   -55.9633 -55.9632 -55.9592 -55.9568 -55.9541 -55.9490 -55.9431 -55.9428
   -55.9410 -55.9385 -55.9372 -55.9344 -55.9341 -55.9315 -55.9298 -55.9256
   -55.9255 -55.9200 -55.9193 -55.9084 -55.9064 -55.9027 -55.9027 -55.8965
   -55.8922 -55.8889 -55.8867 -55.8840 -55.8816 -55.8732 -55.8634 -55.8633
   -55.8594 -55.8537 -55.8496 -55.8485 -55.8475 -55.8432 -55.8387 -55.8384
   -55.8341 -55.8336 -55.8306 -55.8238 -55.8221 -55.8206 -55.8204 -55.8163
   -55.8135 -55.8104 -55.8048 -55.7980 -55.7954 -55.7884 -55.7877 -55.7868
   -55.7843 -55.7808 -55.7718 -55.7696 -55.7661 -55.7624 -55.7589 -55.7576
   -55.7503 -55.7500 -55.7444 -55.7412 -55.7401 -55.7309 -55.7302 -55.7299
   -55.7203 -55.7168 -55.7108 -55.7093 -55.7045 -55.6944 -55.6903 -55.6864
   -55.6822 -55.6741 -55.6705 -55.6506 -34.7587 -34.6040 -34.5655 -34.5579
   -34.5545 -34.4836 -34.4742 -34.4707 -34.4648 -34.4627 -34.4603 -34.4553
   -34.4507 -34.4465 -34.4356 -34.4114 -34.3996 -34.3914 -34.3894 -34.3812
   -34.3803 -34.3644 -34.3601 -34.3573 -34.3541 -34.3495 -34.3432 -34.3389
   -34.3184 -34.3145 -34.3112 -34.3073 -34.3023 -34.2853 -34.2779 -34.2718
   -34.2458 -34.2425 -34.2359 -34.2080 -34.2050 -34.1971 -34.1764 -34.1411
   -34.1100 -34.1015 -34.0760 -33.9657 -33.8822 -12.8290 -12.8248 -12.8049
   -12.7991 -12.7909 -12.7849 -12.7803 -12.7673 -12.7592 -12.7522 -12.7474
   -12.7409 -12.7322 -12.7244 -12.7219 -12.7158 -12.7121 -12.7088 -12.7013
   -12.6991 -12.6906 -12.6872 -12.6786 -12.6703 -12.6659 -12.6611 -12.6583
   -12.6513 -12.6470 -12.6435 -12.6371 -12.6288 -12.6240 -12.6204 -12.6163
   -12.6129 -12.6108 -12.6059 -12.6003 -12.5967 -12.5881 -12.5798 -12.5776
   -12.5746 -12.5677 -12.5659 -12.5587 -12.5564 -12.5506 -12.5452 -12.5360
   -12.5323 -12.5293 -12.5270 -12.5196 -12.5131 -12.5069 -12.5032 -12.4956
   -12.4891 -12.4821 -12.4765 -12.4731 -12.4697 -12.4620 -12.4595 -12.4511
   -12.4477 -12.4425 -12.4368 -12.4343 -12.4265 -12.4214 -12.4134 -12.4115
   -12.4050 -12.3963 -12.3929 -12.3863 -12.3814 -12.3775 -12.3731 -12.3684
   -12.3611 -12.3545 -12.3527 -12.3474 -12.3413 -12.3366 -12.3308 -12.3248
   -12.3236 -12.3170 -12.3098 -12.3016 -12.2980 -12.2872 -12.2820 -12.2805
   -12.2756 -12.2717 -12.2671 -12.2599 -12.2566 -12.2536 -12.2495 -12.2425
   -12.2362 -12.2307 -12.2221 -12.2190 -12.2121 -12.2031 -12.2020 -12.1947
   -12.1866 -12.1838 -12.1727 -12.1654 -12.1614 -12.1571 -12.1512 -12.1464
   -12.1416 -12.1386 -12.1244 -12.1208 -12.1148 -12.0996 -12.0787 -12.0764
   -12.0578 -12.0533 -12.0511 -12.0402 -12.0199 -12.0130 -11.9761 -11.9551
   -11.9342 -11.9135 -11.9015 -11.8838 -11.8634 -11.8147 -11.7842 -11.7386
     7.0735   7.4376   7.5517   7.8709   8.1247   8.2160   8.3678   8.5019
     8.6828   8.7658   8.8859   8.9486   9.0558   9.1995   9.2303   9.3260
     9.4142   9.4266   9.5442   9.6135   9.6869   9.7137   9.7736   9.8192
     9.8522   9.8922   9.9328   9.9834  10.0279  10.0562  10.0740  10.0901
    10.1103  10.1194  10.1323  10.1437  10.1646  10.1744  10.1972  10.2153
    10.2223  10.2386  10.2433  10.2586  10.2771  10.3009  10.3058  10.3247
    10.3296  10.3465  10.3524  10.3671  10.3765  10.3822  10.3940  10.4067
    10.4136  10.4294  10.4381  10.4482  10.4539  10.4637  10.4694  10.4782
    10.4880  10.4955  10.5061  10.5172  10.5237  10.5276  10.5320  10.5430
    10.5541  10.5601  10.5685  10.5794  10.5878  10.5951  10.5963  10.6082
    10.6138  10.6171  10.6214  10.6378  10.6451  10.6479  10.6549  10.6608
    10.6696  10.6744  10.6834  10.6962  10.7002  10.7080  10.7154  10.7208
    10.7288  10.7322  10.7429  10.7506  10.7585  10.7632  10.7665  10.7728
    10.7807  10.7859  10.7946  10.7979  10.8078  10.8168  10.8214  10.8274
    10.8326  10.8365  10.8481  10.8523  10.8659  10.8702  10.8747  10.8802
    10.8905  10.8943  10.9046  10.9084  10.9196  10.9222  10.9292  10.9311
    10.9352  10.9421  10.9516  10.9577  10.9608  10.9688  10.9760  10.9791
    10.9877  10.9914  10.9984  11.0030  11.0072  11.0207  11.0239  11.0275
    11.0383  11.0429  11.0490  11.0558  11.0633  11.0667  11.0726  11.0757
    11.0837  11.0923  11.1024  11.1052  11.1083  11.1184  11.1240  11.1304
    11.1383  11.1437  11.1493  11.1509  11.1610  11.1685  11.1733  11.1833
    11.1922  11.1949  11.2016  11.2050  11.2112  11.2139  11.2230  11.2269
    11.2320  11.2407  11.2474  11.2563  11.2632  11.2688  11.2792  11.2900
    11.2971  11.3029  11.3111  11.3155  11.3238  11.3326  11.3389  11.3446
    11.3535  11.3587  11.3655  11.3704  11.3797  11.3863  11.3905  11.4025
    11.4109  11.4211  11.4299  11.4351  11.4408  11.4535  11.4591  11.4625
    11.4779  11.4846  11.4873  11.4948  11.5093  11.5157  11.5192  11.5257
    11.5396  11.5435  11.5508  11.5530  11.5619  11.5679  11.5782  11.5927
    11.5957  11.6032  11.6128  11.6191  11.6241  11.6364  11.6459  11.6550
    11.6609  11.6673  11.6782  11.6827  11.6891  11.7005  11.7077  11.7186
    11.7293  11.7349  11.7469  11.7560  11.7697  11.7762  11.7923  11.7982
    11.8032  11.8166  11.8247  11.8336  11.8395  11.8463  11.8575  11.8735
    11.8817  11.8867  11.9032  11.9208  11.9283  11.9373  11.9447  11.9502
    11.9623  11.9724  11.9861  11.9948  12.0136  12.0385  12.0467  12.0638
    12.0759  12.0895  12.1066  12.1141  12.1345  12.1753  12.1843  12.2065
    12.2267  12.2452  12.2592  12.3050  12.3298  12.3462  12.3733  12.4277
    12.4549  12.4756  12.5074  12.5281  12.5774  12.6184  12.6438  12.6764
    12.7023  12.7377  12.7392  12.7955  12.8214  12.8358  12.8684  12.8996
    12.9133  12.9869  13.0196  13.0551  13.0823  13.1281  13.1443  13.1505
    13.1710  13.2024  13.2302  13.2661  13.2975  13.3332  13.3445  13.3832
    13.4001  13.4272  13.4372  13.4674  13.4910  13.5229  13.5559  13.5622
    13.5974  13.6209  13.6443  13.6597  13.6835  13.6973  13.7140  13.7348
    13.7655  13.7975  13.8059  13.8346  13.8540  13.8658  13.8959  13.9085
    13.9476  13.9562  13.9639  13.9846  14.0067  14.0182  14.0282  14.0579
    14.0915  14.1020  14.1218  14.1414  14.1582  14.1816  14.1856  14.2082
    14.2246  14.2307  14.2594  14.2824  14.3149  14.3277  14.3493  14.3674
    14.3773  14.4016  14.4262  14.4485  14.4527  14.4652  14.4915  14.5007
    14.5180  14.5415  14.5564  14.5706  14.5956  14.6157  14.6438  14.6636
    14.6813  14.6972  14.7213  14.7379  14.7445  14.7707  14.7937  14.8226
    14.8348  14.8526  14.8828  14.9089  14.9186  14.9377  14.9574  14.9781
    14.9990  15.0096  15.0444  15.0657  15.0716  15.0997  15.1047  15.1548
    15.1737  15.1994  15.2259  15.2400  15.2958  15.3137  15.3232  15.3723
    15.3983  15.4147  15.4281  15.4479  15.4907  15.5100  15.5416  15.5705
    15.6012  15.6272  15.6409  15.6762  15.7156  15.7437  15.7584  15.7889
    15.8110  15.8675  15.8869  15.8989  15.9436  15.9681  15.9996  16.0530
    16.0920  16.1360  16.1665  16.1925  16.2284  16.2384  16.2801  16.3034
    16.3278  16.3671  16.4023  16.4149  16.4462  16.4931  16.5269  16.5462
    16.5682  16.5856  16.6030  16.6356  16.6964  16.7243  16.7442  16.7723
    16.8013  16.8455  16.8664  16.8990  16.9112  16.9743  16.9851  17.0167
    17.0267  17.0486  17.0820  17.1426  17.1554  17.1692  17.1857  17.2176
    17.2398  17.2491  17.2931  17.3381  17.3655  17.3718  17.4140  17.4376
    17.4570  17.4771  17.5195  17.5421  17.5629  17.5948  17.6108  17.6289
    17.6599  17.6914  17.6964  17.7231  17.7499  17.7687  17.7952  17.8333
    17.8491  17.8746  17.8893  17.9104  17.9399  17.9877  18.0002  18.0116
    18.0272  18.0684  18.0907  18.1223  18.1555  18.1930  18.2142  18.2334
    18.2638  18.2831  18.3097  18.3435  18.3623  18.3814  18.4069  18.4378
    18.4543  18.4825  18.5184  18.5455  18.5580  18.5949  18.6197  18.6522
    18.6768  18.7356  18.7549  18.8094  18.8458  18.8685  18.8832  18.9230
    18.9629  19.0138  19.0553  19.1018  19.1317  19.1589  19.2167  19.2369
    19.2822  19.3123  19.3543  19.3802  19.4518  19.4841  19.5204  19.5606
    19.6123  19.6525  19.7704  19.8213  19.8640  19.8868  19.9210  19.9883
    20.0434  20.0999  20.1526  20.2301  20.2968  20.3400  20.4024  20.4214
    20.4834  20.5152  20.5490  20.5921  20.6651  20.7273  20.7797  20.8619
    20.8694  20.8976  20.9301  21.0164  21.0482  21.0754  21.1369  21.1756
    21.2506  21.2649  21.3139  21.3393  21.3726  21.4182  21.4460  21.5003
    21.5521  21.5887  21.6020  21.6249  21.6720  21.7191  21.7422  21.7866
    21.8076  21.8723  21.9466  21.9746  22.0125  22.0707  22.0985  22.1451
    22.1778  22.2275  22.2555  22.2993  22.3461  22.3747  22.4349  22.4723
    22.4899  22.5328  22.5561  22.6289  22.6704  22.7182  22.7634  22.7810
    22.8158  22.8580  22.8781  22.9232  22.9620  22.9968  23.0642  23.0896
    23.1424  23.1734  23.2127  23.2498  23.2804  23.3047  23.3351  23.4156
    23.4446  23.4844  23.5187  23.5412  23.5851  23.6243  23.6449  23.6801
    23.7226  23.7299  23.8157  23.8439  23.8806  23.9347  23.9794  23.9929
    24.0470  24.0724  24.0850  24.1525  24.1815  24.2024  24.2314  24.2936
    24.3183  24.3500  24.3855  24.4200  24.4453  24.4844  24.5213  24.5465
    24.5971  24.6477  24.6666  24.7135  24.7454  24.7800  24.8047  24.8340
    24.8872  24.9150  24.9503  24.9858  24.9919  25.0454

     occupation numbers 
     1.0000   1.0000   1.0000   1.0000   1.0000   1.0000   1.0000   1.0000
     1.0000   1.0000   1.0000   1.0000   1.0000   1.0000   1.0000   1.0000
     1.0000   1.0000   1.0000   1.0000   1.0000   1.0000   1.0000   1.0000
     1.0000   1.0000   1.0000   1.0000   1.0000   1.0000   1.0000   1.0000
     1.0000   1.0000   1.0000   1.0000   1.0000   1.0000   1.0000   1.0000
     1.0000   1.0000   1.0000   1.0000   1.0000   1.0000   1.0000   1.0000
     1.0000   1.0000   1.0000   1.0000   1.0000   1.0000   1.0000   1.0000
     1.0000   1.0000   1.0000   1.0000   1.0000   1.0000   1.0000   1.0000
     1.0000   1.0000   1.0000   1.0000   1.0000   1.0000   1.0000   1.0000
     1.0000   1.0000   1.0000   1.0000   1.0000   1.0000   1.0000   1.0000
     1.0000   1.0000   1.0000   1.0000   1.0000   1.0000   1.0000   1.0000
     1.0000   1.0000   1.0000   1.0000   1.0000   1.0000   1.0000   1.0000
     1.0000   1.0000   1.0000   1.0000   1.0000   1.0000   1.0000   1.0000
     1.0000   1.0000   1.0000   1.0000   1.0000   1.0000   1.0000   1.0000
     1.0000   1.0000   1.0000   1.0000   1.0000   1.0000   1.0000   1.0000
     1.0000   1.0000   1.0000   1.0000   1.0000   1.0000   1.0000   1.0000
     1.0000   1.0000   1.0000   1.0000   1.0000   1.0000   1.0000   1.0000
     1.0000   1.0000   1.0000   1.0000   1.0000   1.0000   1.0000   1.0000
     1.0000   1.0000   1.0000   1.0000   1.0000   1.0000   1.0000   1.0000
     1.0000   1.0000   1.0000   1.0000   1.0000   1.0000   1.0000   1.0000
     1.0000   1.0000   1.0000   1.0000   1.0000   1.0000   1.0000   1.0000
     1.0000   1.0000   1.0000   1.0000   1.0000   1.0000   1.0000   1.0000
     1.0000   1.0000   1.0000   1.0000   1.0000   1.0000   1.0000   1.0000
     1.0000   1.0000   1.0000   1.0000   1.0000   1.0000   1.0000   1.0000
     1.0000   1.0000   1.0000   1.0000   1.0000   1.0000   1.0000   1.0000
     1.0000   1.0000   1.0000   1.0000   1.0000   1.0000   1.0000   1.0000
     1.0000   1.0000   1.0000   1.0000   1.0000   1.0000   1.0000   1.0000
     1.0000   1.0000   1.0000   1.0000   1.0000   1.0000   1.0000   1.0000
     1.0000   1.0000   1.0000   1.0000   1.0000   1.0000   1.0000   1.0000
     1.0000   1.0000   1.0000   1.0000   1.0000   1.0000   1.0000   1.0000
     1.0000   1.0000   1.0000   1.0000   1.0000   1.0000   1.0000   1.0000
     1.0000   1.0000   1.0000   1.0000   1.0000   1.0000   1.0000   1.0000
     1.0000   1.0000   1.0000   1.0000   1.0000   1.0000   1.0000   1.0000
     1.0000   1.0000   1.0000   1.0000   1.0000   1.0000   1.0000   1.0000
     1.0000   1.0000   1.0000   1.0000   1.0000   1.0000   1.0000   1.0000
     1.0000   1.0000   1.0000   1.0000   1.0000   1.0000   1.0000   1.0000
     1.0000   1.0000   1.0000   1.0000   1.0000   1.0000   1.0000   1.0000
     1.0000   1.0000   1.0000   1.0000   1.0000   1.0000   1.0000   1.0000
     1.0000   1.0000   1.0000   1.0000   1.0000   1.0000   1.0000   1.0000
     1.0000   1.0000   1.0000   1.0000   1.0000   1.0000   1.0000   1.0000
     1.0000   1.0000   1.0000   1.0000   1.0000   1.0000   1.0000   1.0000
     1.0000   1.0000   1.0000   1.0000   1.0000   1.0000   1.0000   1.0000
     1.0000   1.0000   1.0000   1.0000   1.0000   1.0000   1.0000   1.0000
     1.0000   1.0000   1.0000   1.0000   1.0000   1.0000   1.0000   1.0000
     1.0000   1.0000   1.0000   1.0000   1.0000   1.0000   1.0000   1.0000
     1.0000   1.0000   1.0000   1.0000   1.0000   1.0000   1.0000   1.0000
     1.0000   1.0000   1.0000   1.0000   1.0000   1.0000   1.0000   1.0000
     1.0000   1.0000   1.0000   1.0000   1.0000   1.0000   1.0000   1.0000
     1.0000   1.0000   1.0000   1.0000   1.0000   1.0000   1.0000   1.0000
     1.0000   1.0000   1.0000   1.0000   1.0000   1.0000   1.0000   1.0000
     1.0000   1.0000   1.0000   1.0000   1.0000   1.0000   1.0000   1.0000
     1.0000   1.0000   1.0000   1.0000   1.0000   1.0000   1.0000   1.0000
     1.0000   1.0000   1.0000   1.0000   1.0000   1.0000   1.0000   1.0000
     1.0000   1.0000   1.0000   1.0000   1.0000   1.0000   1.0000   1.0000
     1.0000   1.0000   1.0000   1.0000   1.0000   1.0000   1.0000   1.0000
     1.0000   1.0000   1.0000   1.0000   1.0000   1.0000   1.0000   1.0000
     1.0000   1.0000   1.0000   1.0000   1.0000   1.0000   1.0000   1.0000
[...]
     atom   84 type  2   force =     0.00010169   -0.00000092    0.00010861
     atom   85 type  3   force =     0.00030525    0.00065087   -0.00037948
     atom   86 type  2   force =    -0.00029029    0.00020403    0.00004440
     atom   87 type  3   force =    -0.00223456   -0.00183246   -0.00406013
     atom   88 type  3   force =    -0.00332942    0.00141796   -0.00112330
     atom   89 type  1   force =     0.00035197   -0.00008785   -0.00167830
     atom   90 type  3   force =    -0.00085608   -0.00124850    0.00361191
     atom   91 type  2   force =    -0.00002629    0.00022641    0.00012165
     atom   92 type  2   force =     0.00005731   -0.00019414    0.00001910
     atom   93 type  2   force =    -0.00010455    0.00025099   -0.00014143
     atom   94 type  2   force =    -0.00005655    0.00049128   -0.00017813
     atom   95 type  2   force =    -0.00008995   -0.00016310    0.00013776
     atom   96 type  3   force =    -0.00003096    0.00108026   -0.00092121
     atom   97 type  3   force =    -0.00028569   -0.00022226    0.00032657
     atom   98 type  2   force =     0.00001512   -0.00012250    0.00027313
     atom   99 type  2   force =    -0.00000696    0.00006363   -0.00032465
     atom  100 type  3   force =    -0.00125813   -0.00127435   -0.00010712
     The Hubbard contrib.    to forces
     atom    1 type  2   force =     0.00000000    0.00000000    0.00000000
     atom    2 type  3   force =     0.00000000    0.00000000    0.00000000
     atom    3 type  2   force =     0.00000000    0.00000000    0.00000000
     atom    4 type  2   force =     0.00000000    0.00000000    0.00000000
     atom    5 type  3   force =     0.00000000    0.00000000    0.00000000
     atom    6 type  2   force =     0.00000000    0.00000000    0.00000000
     atom    7 type  2   force =     0.00000000    0.00000000    0.00000000
     atom    8 type  2   force =     0.00000000    0.00000000    0.00000000
     atom    9 type  3   force =     0.00000000    0.00000000    0.00000000
     atom   10 type  2   force =     0.00000000    0.00000000    0.00000000
     atom   11 type  3   force =     0.00000000    0.00000000    0.00000000
     atom   12 type  3   force =     0.00000000    0.00000000    0.00000000
     atom   13 type  3   force =     0.00000000    0.00000000    0.00000000
     atom   14 type  3   force =     0.00000000    0.00000000    0.00000000
     atom   15 type  2   force =     0.00000000    0.00000000    0.00000000
     atom   16 type  3   force =     0.00000000    0.00000000    0.00000000
     atom   17 type  2   force =     0.00000000    0.00000000    0.00000000
     atom   18 type  2   force =     0.00000000    0.00000000    0.00000000
     atom   19 type  3   force =     0.00000000    0.00000000    0.00000000
     atom   20 type  2   force =     0.00000000    0.00000000    0.00000000
     atom   21 type  2   force =     0.00000000    0.00000000    0.00000000
     atom   22 type  2   force =     0.00000000    0.00000000    0.00000000
     atom   23 type  3   force =     0.00000000    0.00000000    0.00000000
     atom   24 type  2   force =     0.00000000    0.00000000    0.00000000
     atom   25 type  2   force =     0.00000000    0.00000000    0.00000000
     atom   26 type  3   force =     0.00000000    0.00000000    0.00000000
     atom   27 type  2   force =     0.00000000    0.00000000    0.00000000
     atom   28 type  2   force =     0.00000000    0.00000000    0.00000000
     atom   29 type  3   force =     0.00000000    0.00000000    0.00000000
     atom   30 type  2   force =     0.00000000    0.00000000    0.00000000
     atom   31 type  3   force =     0.00000000    0.00000000    0.00000000
     atom   32 type  3   force =     0.00000000    0.00000000    0.00000000
     atom   33 type  3   force =     0.00000000    0.00000000    0.00000000
     atom   34 type  1   force =     0.00000000    0.00000000    0.00000000
     atom   35 type  2   force =     0.00000000    0.00000000    0.00000000
     atom   36 type  2   force =     0.00000000    0.00000000    0.00000000
     atom   37 type  3   force =     0.00000000    0.00000000    0.00000000
     atom   38 type  3   force =     0.00000000    0.00000000    0.00000000
     atom   39 type  2   force =     0.00000000    0.00000000    0.00000000
     atom   40 type  3   force =     0.00000000    0.00000000    0.00000000
     atom   41 type  3   force =     0.00000000    0.00000000    0.00000000
     atom   42 type  3   force =     0.00000000    0.00000000    0.00000000
     atom   43 type  2   force =     0.00000000    0.00000000    0.00000000
     atom   44 type  3   force =     0.00000000    0.00000000    0.00000000
     atom   45 type  2   force =     0.00000000    0.00000000    0.00000000
     atom   46 type  3   force =     0.00000000    0.00000000    0.00000000
     atom   47 type  3   force =     0.00000000    0.00000000    0.00000000
     atom   48 type  3   force =     0.00000000    0.00000000    0.00000000
     atom   49 type  2   force =     0.00000000    0.00000000    0.00000000
     atom   50 type  3   force =     0.00000000    0.00000000    0.00000000
     atom   51 type  3   force =     0.00000000    0.00000000    0.00000000
     atom   52 type  3   force =     0.00000000    0.00000000    0.00000000
     atom   53 type  2   force =     0.00000000    0.00000000    0.00000000
     atom   54 type  3   force =     0.00000000    0.00000000    0.00000000
     atom   55 type  3   force =     0.00000000    0.00000000    0.00000000
     atom   56 type  2   force =     0.00000000    0.00000000    0.00000000
     atom   57 type  3   force =     0.00000000    0.00000000    0.00000000
     atom   58 type  2   force =     0.00000000    0.00000000    0.00000000
     atom   59 type  3   force =     0.00000000    0.00000000    0.00000000
     atom   60 type  3   force =     0.00000000    0.00000000    0.00000000
     atom   61 type  2   force =     0.00000000    0.00000000    0.00000000
     atom   62 type  3   force =     0.00000000    0.00000000    0.00000000
     atom   63 type  2   force =     0.00000000    0.00000000    0.00000000
     atom   64 type  2   force =     0.00000000    0.00000000    0.00000000
     atom   65 type  3   force =     0.00000000    0.00000000    0.00000000
     atom   66 type  2   force =     0.00000000    0.00000000    0.00000000
     atom   67 type  2   force =     0.00000000    0.00000000    0.00000000
     atom   68 type  2   force =     0.00000000    0.00000000    0.00000000
     atom   69 type  2   force =     0.00000000    0.00000000    0.00000000
     atom   70 type  3   force =     0.00000000    0.00000000    0.00000000
     atom   71 type  2   force =     0.00000000    0.00000000    0.00000000
     atom   72 type  2   force =     0.00000000    0.00000000    0.00000000
     atom   73 type  3   force =     0.00000000    0.00000000    0.00000000
     atom   74 type  2   force =     0.00000000    0.00000000    0.00000000
     atom   75 type  2   force =     0.00000000    0.00000000    0.00000000
     atom   76 type  3   force =     0.00000000    0.00000000    0.00000000
     atom   77 type  3   force =     0.00000000    0.00000000    0.00000000
     atom   78 type  2   force =     0.00000000    0.00000000    0.00000000
     atom   79 type  3   force =     0.00000000    0.00000000    0.00000000
     atom   80 type  2   force =     0.00000000    0.00000000    0.00000000
     atom   81 type  3   force =     0.00000000    0.00000000    0.00000000
     atom   82 type  3   force =     0.00000000    0.00000000    0.00000000
     atom   83 type  3   force =     0.00000000    0.00000000    0.00000000
     atom   84 type  2   force =     0.00000000    0.00000000    0.00000000
     atom   85 type  3   force =     0.00000000    0.00000000    0.00000000
     atom   86 type  2   force =     0.00000000    0.00000000    0.00000000
     atom   87 type  3   force =     0.00000000    0.00000000    0.00000000
     atom   88 type  3   force =     0.00000000    0.00000000    0.00000000
     atom   89 type  1   force =     0.00000000    0.00000000    0.00000000
     atom   90 type  3   force =     0.00000000    0.00000000    0.00000000
     atom   91 type  2   force =     0.00000000    0.00000000    0.00000000
     atom   92 type  2   force =     0.00000000    0.00000000    0.00000000
     atom   93 type  2   force =     0.00000000    0.00000000    0.00000000
     atom   94 type  2   force =     0.00000000    0.00000000    0.00000000
     atom   95 type  2   force =     0.00000000    0.00000000    0.00000000
     atom   96 type  3   force =     0.00000000    0.00000000    0.00000000
     atom   97 type  3   force =     0.00000000    0.00000000    0.00000000
     atom   98 type  2   force =     0.00000000    0.00000000    0.00000000
     atom   99 type  2   force =     0.00000000    0.00000000    0.00000000
     atom  100 type  3   force =     0.00000000    0.00000000    0.00000000
     The SCF correction term to forces
     atom    1 type  2   force =     0.00030880    0.00023145    0.00005121
     atom    2 type  3   force =     0.00024644    0.00027109    0.00018372
     atom    3 type  2   force =     0.00039482    0.00005858   -0.00025747
     atom    4 type  2   force =     0.00008685    0.00044185   -0.00035013
     atom    5 type  3   force =    -0.00004123    0.00046880    0.00006388
     atom    6 type  2   force =    -0.00000861    0.00042050    0.00003395
     atom    7 type  2   force =     0.00021112    0.00061242    0.00028143
     atom    8 type  2   force =    -0.00013872   -0.00061080    0.00074798
     atom    9 type  3   force =    -0.00007888    0.00013619   -0.00022032
     atom   10 type  2   force =     0.00007398   -0.00025865   -0.00062352
     atom   11 type  3   force =    -0.00018810   -0.00014325    0.00012998
     atom   12 type  3   force =    -0.00010069   -0.00013591   -0.00059372
     atom   13 type  3   force =    -0.00020276   -0.00021618    0.00023597
     atom   14 type  3   force =    -0.00036684   -0.00044305   -0.00018774
     atom   15 type  2   force =    -0.00063199   -0.00070560    0.00098811
     atom   16 type  3   force =    -0.00021536   -0.00016711    0.00062471
     atom   17 type  2   force =     0.00003708    0.00008881   -0.00091132
     atom   18 type  2   force =    -0.00024933    0.00001087   -0.00070553
     atom   19 type  3   force =    -0.00011383    0.00014510    0.00013209
     atom   20 type  2   force =    -0.00040918   -0.00050695    0.00058188
     atom   21 type  2   force =    -0.00010350    0.00038186    0.00055245
     atom   22 type  2   force =     0.00005740   -0.00006815    0.00029031
     atom   23 type  3   force =     0.00012272    0.00016646   -0.00036416
     atom   24 type  2   force =    -0.00023201    0.00036826    0.00022549
     atom   25 type  2   force =     0.00015114    0.00072951   -0.00047852
     atom   26 type  3   force =     0.00016815   -0.00017203   -0.00010500
     atom   27 type  2   force =     0.00001981    0.00053703   -0.00020952
     atom   28 type  2   force =     0.00011492    0.00013428   -0.00064316
     atom   29 type  3   force =    -0.00013842   -0.00029100   -0.00034436
     atom   30 type  2   force =    -0.00021593   -0.00071198    0.00049008
     atom   31 type  3   force =     0.00009542    0.00025442    0.00034284
     atom   32 type  3   force =     0.00017584    0.00004854    0.00046886
     atom   33 type  3   force =     0.00021464   -0.00055980    0.00048430
     atom   34 type  1   force =    -0.00002043   -0.00009305   -0.00003797
     atom   35 type  2   force =    -0.00008747   -0.00071222   -0.00119311
     atom   36 type  2   force =    -0.00037058   -0.00030434   -0.00117057
     atom   37 type  3   force =     0.00002432   -0.00037083   -0.00023315
     atom   38 type  3   force =    -0.00008086   -0.00049572    0.00055866
     atom   39 type  2   force =    -0.00036646   -0.00048690    0.00090696
     atom   40 type  3   force =    -0.00021398   -0.00001334   -0.00021208
     atom   41 type  3   force =    -0.00004112    0.00003921   -0.00060253
     atom   42 type  3   force =    -0.00005844    0.00028319   -0.00060464
     atom   43 type  2   force =     0.00020006    0.00049926   -0.00008038
     atom   44 type  3   force =     0.00018149    0.00018853    0.00043846
     atom   45 type  2   force =    -0.00009863    0.00038279    0.00076178
     atom   46 type  3   force =     0.00010875    0.00053443    0.00035707
     atom   47 type  3   force =    -0.00007172    0.00036068   -0.00021517
     atom   48 type  3   force =     0.00000127    0.00022534   -0.00034203
     atom   49 type  2   force =     0.00031508    0.00076784   -0.00005345
     atom   50 type  3   force =     0.00014431    0.00046876    0.00033784
     atom   51 type  3   force =    -0.00003355    0.00004587    0.00033391
     atom   52 type  3   force =    -0.00029759    0.00018944   -0.00007265
     atom   53 type  2   force =    -0.00000629   -0.00016817   -0.00095364
     atom   54 type  3   force =     0.00008429   -0.00032297   -0.00024828
     atom   55 type  3   force =     0.00006756    0.00008611    0.00034649
     atom   56 type  2   force =     0.00050566   -0.00054590    0.00035033
     atom   57 type  3   force =     0.00008272   -0.00037053   -0.00031250
     atom   58 type  2   force =     0.00038329   -0.00069277   -0.00109530
     atom   59 type  3   force =     0.00030431   -0.00040608    0.00013663
     atom   60 type  3   force =     0.00012945   -0.00031760    0.00045873
     atom   61 type  2   force =     0.00043476   -0.00076745    0.00096227
     atom   62 type  3   force =     0.00013183    0.00002248    0.00013603
     atom   63 type  2   force =     0.00048102   -0.00033528   -0.00089343
     atom   64 type  2   force =     0.00023751    0.00045842   -0.00065647
     atom   65 type  3   force =     0.00023906    0.00001716   -0.00016429
     atom   66 type  2   force =     0.00057720   -0.00038989    0.00079479
     atom   67 type  2   force =     0.00048890   -0.00030489    0.00071373
     atom   68 type  2   force =     0.00018352    0.00040113    0.00058222
     atom   69 type  2   force =     0.00004333    0.00057513    0.00000558
     atom   70 type  3   force =    -0.00001820    0.00021385   -0.00041736
     atom   71 type  2   force =     0.00002658    0.00072712   -0.00050882
     atom   72 type  2   force =     0.00000871    0.00039910   -0.00021180
     atom   73 type  3   force =     0.00006416    0.00031124    0.00018845
     atom   74 type  2   force =    -0.00023779    0.00067332    0.00058705
     atom   75 type  2   force =    -0.00035436    0.00006194    0.00006880
     atom   76 type  3   force =    -0.00001439    0.00011521    0.00011736
     atom   77 type  3   force =    -0.00001410   -0.00013318   -0.00041711
     atom   78 type  2   force =    -0.00009169    0.00020320   -0.00025634
     atom   79 type  3   force =    -0.00003972    0.00022071   -0.00016586
     atom   80 type  2   force =    -0.00004099    0.00007282    0.00032853
     atom   81 type  3   force =    -0.00024632    0.00036432    0.00020324
     atom   82 type  3   force =    -0.00011250    0.00011531    0.00018533
     atom   83 type  3   force =     0.00004126   -0.00009445   -0.00027425
     atom   84 type  2   force =     0.00029904   -0.00043909   -0.00085646
     atom   85 type  3   force =    -0.00006135   -0.00020621   -0.00010326
     atom   86 type  2   force =    -0.00024406   -0.00071572    0.00059982
     atom   87 type  3   force =    -0.00005605   -0.00033346    0.00049690
     atom   88 type  3   force =     0.00018137   -0.00008966    0.00007546
     atom   89 type  1   force =    -0.00001730   -0.00004116   -0.00002272
     atom   90 type  3   force =     0.00008830   -0.00000115   -0.00060005
     atom   91 type  2   force =    -0.00002368   -0.00059197   -0.00015910
     atom   92 type  2   force =    -0.00009107    0.00008590   -0.00000439
     atom   93 type  2   force =     0.00024623   -0.00050990    0.00076514
     atom   94 type  2   force =    -0.00023258   -0.00026040    0.00060108
     atom   95 type  2   force =    -0.00032332    0.00025669    0.00052014
     atom   96 type  3   force =    -0.00010250    0.00004193   -0.00025871
     atom   97 type  3   force =    -0.00003450    0.00027622   -0.00037945
     atom   98 type  2   force =    -0.00010174    0.00054702   -0.00060527
     atom   99 type  2   force =    -0.00025483    0.00062220    0.00010525
     atom  100 type  3   force =    -0.00011680    0.00000598    0.00043454

     Total force =     0.281250     Total SCF correction =     0.006646

     Writing output data file Zr49Cu49Al2.save
 
     init_run     :     41.50s CPU     42.44s WALL (       1 calls)
     electrons    :   6515.91s CPU   6623.84s WALL (       1 calls)
     forces       :     27.68s CPU     28.40s WALL (       1 calls)

     Called by init_run:
     wfcinit      :     30.87s CPU     31.23s WALL (       1 calls)
     wfcinit:atom :      0.06s CPU      0.10s WALL (       1 calls)
     wfcinit:wfcr :     30.55s CPU     30.79s WALL (       1 calls)
     potinit      :      2.30s CPU      2.38s WALL (       1 calls)

     Called by electrons:
     c_bands      :   5592.05s CPU   5655.26s WALL (      56 calls)
     sum_band     :    779.94s CPU    802.69s WALL (      56 calls)
     v_of_rho     :     22.21s CPU     22.97s WALL (      57 calls)
     v_h          :      2.14s CPU      2.21s WALL (      57 calls)
     v_xc         :     20.43s CPU     21.13s WALL (      58 calls)
     newd         :    102.78s CPU    122.97s WALL (      57 calls)
     PAW_pot      :     10.04s CPU     10.48s WALL (      57 calls)
     mix_rho      :      5.83s CPU      6.14s WALL (      56 calls)

     Called by c_bands:
     init_us_2    :      8.82s CPU      8.92s WALL (     113 calls)
     cegterg      :   5230.06s CPU   5283.29s WALL (      56 calls)

     Called by sum_band:
     sum_band:bec :      1.57s CPU      1.59s WALL (      56 calls)
     addusdens    :    134.15s CPU    153.21s WALL (      56 calls)

     Called by *egterg:
     h_psi        :   2135.76s CPU   2145.60s WALL (     157 calls)
     s_psi        :    484.13s CPU    485.36s WALL (     157 calls)
     g_psi        :      3.06s CPU      3.06s WALL (     100 calls)
     cdiaghg      :   1210.24s CPU   1226.69s WALL (     156 calls)
     cegterg:over :    574.75s CPU    577.64s WALL (     100 calls)
     cegterg:upda :    331.86s CPU    333.52s WALL (     100 calls)
     cegterg:last :    292.67s CPU    292.85s WALL (      56 calls)
     cdiaghg:chol :     60.40s CPU     61.00s WALL (     156 calls)
     cdiaghg:inve :     71.12s CPU     71.60s WALL (     156 calls)
     cdiaghg:para :    181.72s CPU    188.61s WALL (     312 calls)

     Called by h_psi:
     h_psi:pot    :   2128.72s CPU   2138.56s WALL (     157 calls)
     h_psi:calbec :    463.27s CPU    464.09s WALL (     157 calls)
     vloc_psi     :   1181.78s CPU   1189.51s WALL (     157 calls)
     add_vuspsi   :    483.66s CPU    484.94s WALL (     157 calls)

     General routines
     calbec       :    700.89s CPU    702.11s WALL (     217 calls)
     fft          :     30.33s CPU     31.71s WALL (     919 calls)
     ffts         :      0.71s CPU      0.81s WALL (     113 calls)
     fftw         :   1063.05s CPU   1070.35s WALL (  313672 calls)
     interpolate  :      4.59s CPU      4.95s WALL (     113 calls)
 
     Parallel routines
     fft_scatt_xy :     90.81s CPU     91.29s WALL (  314704 calls)
     fft_scatt_yz :    199.98s CPU    202.54s WALL (  314704 calls)

     PAW routines
     PAW_pot      :     10.04s CPU     10.48s WALL (      57 calls)
 
     PWSCF        :     1h49m CPU        1h57m WALL

 
   This run was terminated on:  19:27:19  19Apr2019            

=------------------------------------------------------------------------------=
   JOB DONE.
=------------------------------------------------------------------------------=
