  COHP#  atomMU  atomNU     distance     translation      ICOHP (at) eF   for spin  1
      1     Cu1     Zr2      3.31462       0   0   0           -0.37926 
      2     Cu1     Cu3      2.48867       0   0   0           -0.48448 
      3     Cu1     Cu7      2.59945       0   0   1           -0.40349 
      4     Cu1     Cu8      2.42620       0   0   0           -0.59037 
      5     Cu1     Zr9      2.74709       0   0   0           -1.09367 
      6     Cu1    Cu10      2.61476       0   0   0           -0.32634 
      7     Cu1    Zr11      3.00750       0   0   0           -0.66943 
      8     Cu1    Cu15      4.14252       0   0   1           -0.00587 
      9     Cu1    Zr26      2.77009       0   0   0           -1.03006 
     10     Cu1    Zr32      3.21304       0   0   1           -0.42213 
     11     Cu1    Al34      4.12774       0   0   0           -0.01644 
     12     Cu1    Zr76      2.99847       1   0   0           -0.66843 
     13     Cu1    Zr82      2.50660       1   0   0           -1.79796 
     14     Zr2     Cu3      2.85050       0   0   0           -0.92731 
     15     Zr2     Cu7      3.26259       0   0   1           -0.40027 
     16     Zr2    Cu21      3.66113       0   1   0           -0.16297 
     17     Zr2    Cu22      2.66329       0   1   0           -1.58058 
     18     Zr2    Zr23      3.27980       0   1   0           -1.26752 
     19     Zr2    Zr26      3.29885       0   0   0           -1.28383 
     20     Zr2    Cu27      3.05017       0   0   0           -0.60775 
     21     Zr2    Cu28      2.96504       0   0   0           -0.69234 
     22     Zr2    Zr32      3.34787       0   0   1           -1.07364 
     23     Zr2    Cu45      2.86678       0   1   0           -0.84770 
     24     Zr2    Zr46      3.04166       0   1   0           -1.97389 
     25     Zr2    Zr47      3.25928       0   1   0           -1.31060 
     26     Zr2    Zr50      3.34630       0   1   1           -1.06478 
     27     Zr2    Zr76      3.09219       1   0   0           -1.82168 
     28     Cu3     Cu4      3.29431       0   0   0           -0.08230 
     29     Cu3     Zr9      2.88743       0   0   0           -0.80654 
     30     Cu3    Cu10      2.46801       0   0   0           -0.62649 
     31     Cu3    Cu22      4.08618       0   1   0           -0.01132 
     32     Cu3    Zr23      2.77234       0   1   0           -1.13371 
     33     Cu3    Zr26      3.06531       0   0   0           -0.62210 
     34     Cu3    Cu28      2.47863       0   0   0           -0.58183 
     35     Cu3    Zr29      2.92649       0   0   0           -0.80628 
     36     Cu3    Cu35      3.98499       0   0   0           -0.00259 
     37     Cu3    Zr76      2.95483       1   0   0           -0.69422 
     38     Cu3    Cu78      2.80352       1   0   0           -0.32061 
     39     Cu3    Zr85      4.03719       1   0   0           -0.07545 
     40     Cu4     Zr5      2.68996       0   0   0           -1.23049 
     41     Cu4     Cu6      2.61769       0   0   0           -0.41902 
     42     Cu4    Zr13      3.51722       0   0   0           -0.24227 
     43     Cu4    Zr23      2.69645       0   1   0           -1.26043 
     44     Cu4    Cu24      4.05546       0   1   0           -0.00149 
     45     Cu4    Cu25      2.68399       0   1   0           -0.31723 
     46     Cu4    Cu28      4.02335       0   0   0           -0.00747 
     47     Cu4    Zr29      2.79931       0   0   0           -1.13527 
     48     Cu4    Zr48      3.65030       0   1   0           -0.19261 
     49     Cu4    Cu78      2.49047       1   0   0           -0.55115 
     50     Cu4    Zr79      3.38189       1   0   0           -0.28141 
     51     Cu4    Cu80      4.06364       1   0   0           -0.01866 
     52     Cu4    Zr85      2.92317       1   0   0           -0.79410 
     53     Cu4    Zr97      2.77260       1   1   0           -1.03474 
     54     Zr5     Cu6      3.01173       0   0   0           -0.67897 
     55     Zr5     Cu7      2.72505       0   0   0           -1.07304 
     56     Zr5    Zr13      3.06295       0   0   0           -1.94901 
     57     Zr5    Cu21      2.61792       0   1  -1           -1.46923 
     58     Zr5    Cu24      2.82642       0   1   0           -0.96655 
     59     Zr5    Cu25      3.22497       0   1   0           -0.44176 
     60     Zr5    Zr50      3.46760       0   1   0           -0.91842 
     61     Zr5    Zr55      4.09891       1   0   0           -0.30436 
     62     Zr5    Zr79      3.33959       1   0   0           -1.15556 
     63     Zr5    Cu80      2.74013       1   0   0           -1.13521 
     64     Zr5    Zr81      2.90057       1   0   0           -2.54485 
     65     Zr5    Zr85      3.95057       1   0   0           -0.41944 
     66     Zr5    Zr97      3.23490       1   1   0           -1.38391 
     67     Zr5    Cu99      2.97228       1   1   0           -0.69139 
     68     Zr5   Zr100      3.94871       1   1   0           -0.41674 
     69     Cu6     Cu7      3.42285       0   0   0           -0.09278 
     70     Cu6    Zr13      2.82474       0   0   0           -0.93213 
     71     Cu6    Cu24      4.15654       0   1   0           -0.00392 
     72     Cu6    Cu25      2.61239       0   1   0           -0.38373 
     73     Cu6    Zr29      3.02751       0   0   0           -0.63347 
     74     Cu6    Cu30      2.40100       0   0   0           -0.61059 
     75     Cu6    Zr31      2.96922       0   0   0           -0.67453 
     76     Cu6    Zr32      3.13100       0   0   0           -0.46469 
     77     Cu6    Zr48      2.74635       0   1   0           -1.21353 
     78     Cu6    Cu49      3.45720       0   1   0           -0.02562 
     79     Cu6    Zr50      2.80539       0   1   0           -1.04125 
     80     Cu6    Zr54      3.99960       0   0   0           -0.08507 
     81     Cu7     Cu8      3.61653       0   0  -1           -0.02581 
     82     Cu7    Zr13      2.84961       0   0   0           -0.92402 
     83     Cu7    Cu21      2.40754       0   1  -1           -0.63285 
     84     Cu7    Zr32      2.68466       0   0   0           -1.35900 
     85     Cu7    Zr50      3.00285       0   1   0           -0.64088 
     86     Cu7    Zr76      2.89808       1   0  -1           -0.80540 
     87     Cu7    Cu80      3.79027       1   0   0           -0.03374 
     88     Cu7    Zr81      3.00535       1   0   0           -0.56062 
     89     Cu7    Zr82      2.81845       1   0  -1           -0.98187 
     90     Cu8    Cu10      3.55048       0   0   0            0.00073 
     91     Cu8    Zr11      2.66115       0   0   0           -1.37243 
     92     Cu8    Zr13      3.47006       0   0   1           -0.32628 
     93     Cu8    Cu15      2.71491       0   0   1           -0.34891 
     94     Cu8    Zr26      2.91162       0   0   0           -0.68470 
     95     Cu8    Cu30      4.07443       0   0   1           -0.01664 
     96     Cu8    Zr32      2.75518       0   0   1           -1.18021 
     97     Cu8    Zr33      2.99325       0   0   0           -0.57818 
     98     Cu8    Al34      3.15109       0   0   0           -0.49655 
     99     Cu8    Zr38      2.80668       0   0   1           -1.05695 
    100     Cu8    Cu39      2.45642       0   0   0           -0.43341 
    101     Cu8    Zr82      3.24698       1   0   0           -0.42049 
    102     Zr9    Cu10      2.89722       0   0   0           -0.92306 
    103     Zr9    Zr11      3.35006       0   0   0           -1.03070 
    104     Zr9    Zr12      3.26963       0   0   0           -1.29823 
    105     Zr9    Zr52      3.72910       1   0   0           -0.55779 
    106     Zr9    Cu75      3.10928       1   0   0           -0.48628 
    107     Zr9    Zr76      3.30443       1   0   0           -1.23535 
    108     Zr9    Zr77      3.08173       1   0   0           -1.76685 
    109     Zr9    Cu78      2.74485       1   0   0           -1.19216 
    110     Zr9    Zr82      3.28027       1   0   0           -1.21299 
    111     Zr9    Zr83      2.84304       1   0   0           -2.89900 
    112     Zr9    Cu84      3.56099       1   0   0           -0.21564 
    113     Zr9    Zr85      3.29999       1   0   0           -1.21500 
    114    Cu10    Zr11      2.97626       0   0   0           -0.61258 
    115    Cu10    Zr12      3.02119       0   0   0           -0.72290 
    116    Cu10    Zr26      2.75780       0   0   0           -0.98485 
    117    Cu10    Cu28      3.70979       0   0   0           -0.01064 
    118    Cu10    Zr29      2.90548       0   0   0           -0.91015 
    119    Cu10    Al34      2.76682       0   0   0           -0.94099 
    120    Cu10    Cu35      2.69117       0   0   0           -0.26176 
    121    Cu10    Cu36      2.44323       0   0   0           -0.44960 
    122    Cu10    Zr40      3.91427       0   0   0           -0.05996 
    123    Cu10    Zr85      4.00665       1   0   0           -0.11342 
    124    Zr11    Zr12      3.32641       0   0   0           -0.87431 
    125    Zr11    Cu15      2.81359       0   0   1           -0.94443 
    126    Zr11    Zr16      3.32894       0   0   0           -0.96333 
    127    Zr11    Al34      3.45990       0   0   0           -0.88666 
    128    Zr11    Cu36      4.02505       0   0   0           -0.04313 
    129    Zr11    Cu39      2.80665       0   0   0           -0.94654 
    130    Zr11    Zr40      3.18269       0   0   0           -1.21499 
    131    Zr11    Zr82      3.00866       1   0   0           -2.13732 
    132    Zr11    Zr83      3.22912       1   0   0           -1.08300 
    133    Zr11    Zr87      3.10467       1   0   0           -1.54487 
    134    Zr11    Al89      2.81362       1   0   0           -2.04359 
    135    Zr12    Zr14      3.10144       0   0   0           -1.82972 
    136    Zr12    Cu17      2.92240       0   0   0           -0.56367 
    137    Zr12    Cu18      2.99586       0   0   0           -0.67944 
    138    Zr12    Cu36      2.66277       0   0   0           -1.31840 
    139    Zr12    Zr40      3.36302       0   0   0           -0.90296 
    140    Zr12    Zr42      3.87664       0   0   0           -0.43562 
    141    Zr12    Zr83      3.28144       1   0   0           -1.02120 
    142    Zr12    Cu84      3.12216       1   0   0           -0.49395 
    143    Zr12    Zr85      3.30988       1   0   0           -1.23927 
    144    Zr12    Al89      3.05638       1   0   0           -1.55283 
    145    Zr12    Zr90      3.09011       1   0   0           -1.57097 
    146    Zr12    Cu91      2.99652       1   0   0           -0.70779 
    147    Zr13    Zr14      3.12468       0   0   0           -1.70035 
    148    Zr13    Cu15      3.17552       0   0   0           -0.49384 
    149    Zr13    Zr29      3.51570       0   0   0           -0.85377 
    150    Zr13    Cu30      2.90365       0   0   0           -0.81972 
    151    Zr13    Zr32      3.33858       0   0   0           -1.13660 
    152    Zr13    Zr38      3.44632       0   0   0           -0.92225 
    153    Zr13    Cu80      2.97647       1   0   0           -0.65842 
    154    Zr13    Zr82      3.26534       1   0  -1           -1.31484 
    155    Zr13    Zr85      3.21159       1   0   0           -1.48588 
    156    Zr13    Cu86      2.70382       1   0   0           -1.23448 
    157    Zr14    Cu15      3.32634       0   0   0           -0.36085 
    158    Zr14    Cu18      2.94044       0   0   0           -0.74001 
    159    Zr14    Zr19      3.06482       0   0   0           -1.84188 
    160    Zr14    Cu20      3.38551       0   0   0           -0.31254 
    161    Zr14    Zr29      3.44862       0   0   0           -0.93203 
    162    Zr14    Cu30      3.86996       0   0   0           -0.12081 
    163    Zr14    Cu36      2.79970       0   0   0           -1.09586 
    164    Zr14    Zr37      3.25732       0   0   0           -1.18150 
    165    Zr14    Zr38      2.92481       0   0   0           -2.58439 
    166    Zr14    Zr42      3.39631       0   0   0           -0.92794 
    167    Zr14    Cu43      3.97031       0   0   0           -0.07929 
    168    Zr14    Zr85      3.28144       1   0   0           -1.29229 
    169    Zr14    Cu86      3.13951       1   0   0           -0.52010 
    170    Zr14    Cu91      3.09052       1   0   0           -0.61670 
    171    Cu15    Zr16      2.89659       0   0  -1           -0.76811 
    172    Cu15    Zr19      3.24371       0   0   0           -0.42632 
    173    Cu15    Cu20      2.63635       0   0   0           -0.36757 
    174    Cu15    Zr38      2.83020       0   0   0           -0.89152 
    175    Cu15    Cu39      3.09026       0   0  -1           -0.17193 
    176    Cu15    Zr82      2.94759       1   0  -1           -0.69945 
    177    Cu15    Cu86      2.34130       1   0   0           -0.74761 
    178    Cu15    Zr87      2.79810       1   0  -1           -0.89539 
    179    Cu15    Cu91      4.16309       1   0   0           -0.01350 
    180    Zr16    Zr19      3.08851       0   0   1           -1.93781 
    181    Zr16    Cu20      3.14490       0   0   1           -0.54162 
    182    Zr16    Cu21      2.90448       0   0   0           -0.85231 
    183    Zr16    Cu22      2.90827       0   0   0           -0.67509 
    184    Zr16    Cu24      3.07773       0   0   1           -0.58978 
    185    Zr16    Cu39      3.11864       0   0   0           -0.58972 
    186    Zr16    Zr40      3.86439       0   0   0           -0.36677 
    187    Zr16    Zr44      3.87523       0   0   1           -0.49436 
    188    Zr16    Cu45      2.80516       0   0   0           -1.03092 
    189    Zr16    Zr50      3.26168       0   0   1           -1.36035 
    190    Zr16    Zr87      3.08345       1   0   0           -1.65470 
    191    Zr16    Al89      3.13626       1   0   0           -1.37773 
    192    Zr16    Cu94      2.72489       1   0   0           -1.00917 
    193    Zr16   Zr100      3.49687       1   0   1           -0.89439 
    194    Cu17    Cu18      2.48514       0   0   0           -0.56918 
    195    Cu17    Cu22      2.64580       0   0   0           -0.17728 
    196    Cu17    Zr23      2.64815       0   0   0           -1.43604 
    197    Cu17    Cu25      3.76418       0   0   0           -0.01985 
    198    Cu17    Cu36      3.98591       0   0   0           -0.01079 
    199    Cu17    Zr40      2.78686       0   0   0           -0.91777 
    200    Cu17    Zr42      2.96585       0   0   0           -0.75028 
    201    Cu17    Al89      2.43338       1   0   0           -1.56703 
    202    Cu17    Zr90      2.79409       1   0   0           -0.81006 
    203    Cu17    Cu94      3.92637       1   0   0            0.00000 
    204    Cu17    Zr96      3.04989       1   0   0           -0.43532 
    205    Cu17    Zr97      2.91611       1   0   0           -0.88452 
    206    Cu18    Zr19      2.88410       0   0   0           -0.85930 
    207    Cu18    Cu20      2.57182       0   0   0           -0.47642 
    208    Cu18    Zr23      4.11648       0   0   0           -0.05150 
    209    Cu18    Cu24      2.78264       0   0   0           -0.24583 
    210    Cu18    Cu25      3.12119       0   0   0           -0.09143 
    211    Cu18    Cu36      3.99804       0   0   0           -0.01417 
    212    Cu18    Zr42      2.77826       0   0   0           -0.95769 
    213    Cu18    Cu86      4.16396       1   0   0           -0.00542 
    214    Cu18    Zr90      2.98441       1   0   0           -0.75943 
    215    Cu18    Cu91      2.64256       1   0   0           -0.40500 
    216    Cu18    Cu92      2.82678       1   0   0           -0.25613 
    217    Cu18    Zr97      2.76961       1   0   0           -1.07864 
    218    Zr19    Cu20      2.94351       0   0   0           -0.71942 
    219    Zr19    Cu24      2.68283       0   0   0           -1.23101 
    220    Zr19    Cu25      2.87102       0   0   0           -0.81274 
    221    Zr19    Zr38      3.07861       0   0   0           -1.74535 
    222    Zr19    Cu39      3.96018       0   0  -1           -0.11314 
    223    Zr19    Zr42      2.88080       0   0   0           -2.75429 
    224    Zr19    Cu43      3.00013       0   0   0           -0.60268 
    225    Zr19    Zr44      3.07918       0   0   0           -1.83730 
    226    Zr19    Cu45      4.18838       0   0  -1           -0.05284 
    227    Zr19    Cu49      2.77915       0   0   0           -0.97430 
    228    Zr19    Zr50      3.25578       0   0   0           -1.31539 
    229    Cu20    Cu24      2.47791       0   0   0           -0.53063 
    230    Cu20    Cu86      2.54096       1   0   0           -0.44409 
    231    Cu20    Zr87      2.87455       1   0  -1           -0.89914 
    232    Cu20    Cu91      2.55187       1   0   0           -0.47561 
    233    Cu20    Cu92      2.51491       1   0   0           -0.45721 
    234    Cu20    Cu93      2.58218       1   0   0           -0.44134 
    235    Cu20    Zr97      4.19842       1   0   0           -0.03702 
    236    Cu20   Zr100      2.91098       1   0   0           -0.82295 
    237    Cu21    Cu22      3.30433       0   0   0           -0.09519 
    238    Cu21    Cu24      2.64086       0   0   1           -0.39139 
    239    Cu21    Cu25      4.18154       0   0   1           -0.00350 
    240    Cu21    Cu45      4.17200       0   0   0           -0.00621 
    241    Cu21    Zr50      2.64058       0   0   1           -1.43938 
    242    Cu21    Zr76      2.86956       1  -1   0           -0.81768 
    243    Cu21    Zr81      2.88839       1  -1   1           -0.80061 
    244    Cu21    Cu94      2.55753       1   0   0           -0.54284 
    245    Cu21    Cu95      3.28733       1   0   0           -0.05505 
    246    Cu21    Cu99      3.88151       1   0   1           -0.01275 
    247    Cu21   Zr100      2.92997       1   0   1           -0.75964 
    248    Cu22    Zr23      2.87368       0   0   0           -0.89209 
    249    Cu22    Zr40      2.90852       0   0   0           -0.64150 
    250    Cu22    Cu45      2.91570       0   0   0           -0.25969 
    251    Cu22    Zr47      3.82596       0   0   0           -0.14316 
    252    Cu22    Zr76      2.87093       1  -1   0           -0.97565 
    253    Cu22    Al89      2.48932       1   0   0           -1.57178 
    254    Cu22    Cu94      2.35516       1   0   0           -0.46202 
    255    Cu22    Zr96      3.24984       1   0   0           -0.31612 
    256    Zr23    Cu25      2.95102       0   0   0           -0.80603 
    257    Zr23    Cu28      2.93584       0  -1   0           -0.72011 
    258    Zr23    Zr29      4.00864       0  -1   0           -0.38975 
    259    Zr23    Zr40      3.90315       0   0   0           -0.46229 
    260    Zr23    Zr42      3.42186       0   0   0           -0.95753 
    261    Zr23    Zr47      3.27339       0   0   0           -1.24502 
    262    Zr23    Zr48      3.23747       0   0   0           -1.37350 
    263    Zr23    Zr76      3.74689       1  -1   0           -0.56506 
    264    Zr23    Cu78      3.18304       1  -1   0           -0.51794 
    265    Zr23    Zr96      3.74266       1   0   0           -0.56836 
    266    Zr23    Zr97      3.11174       1   0   0           -1.69814 
    267    Cu24    Cu25      2.47509       0   0   0           -0.56528 
    268    Cu24    Zr50      3.07626       0   0   0           -0.55778 
    269    Cu24    Cu92      2.84987       1   0   0           -0.23887 
    270    Cu24    Cu94      4.16065       1   0  -1           -0.00549 
    271    Cu24    Zr97      2.80264       1   0   0           -1.03929 
    272    Cu24    Cu99      3.26411       1   0   0           -0.07220 
    273    Cu24   Zr100      2.71742       1   0   0           -1.17008 
    274    Cu25    Zr42      2.82949       0   0   0           -0.94032 
    275    Cu25    Zr48      2.83980       0   0   0           -0.97778 
    276    Cu25    Cu49      2.78225       0   0   0           -0.32071 
    277    Cu25    Zr50      2.99901       0   0   0           -0.68286 
    278    Cu25    Zr97      2.80768       1   0   0           -0.92472 
    279    Zr26    Cu27      2.76435       0   0   0           -1.07170 
    280    Zr26    Cu28      2.83845       0   0   0           -0.97563 
    281    Zr26    Zr32      2.99726       0   0   1           -2.17624 
    282    Zr26    Zr33      3.50937       0   0   0           -0.65255 
    283    Zr26    Al34      2.87284       0   0   0           -2.09690 
    284    Zr26    Cu35      2.87814       0   0   0           -0.75796 
    285    Zr26    Zr51      3.34468       0   0   0           -1.11148 
    286    Zr26    Cu53      2.79104       0   0   0           -0.95924 
    287    Zr26    Zr57      3.31245       0   0   0           -1.08187 
    288    Cu27    Cu28      2.43251       0   0   0           -0.57860 
    289    Cu27    Zr32      4.01859       0   0   1           -0.08515 
    290    Cu27    Zr46      2.59684       0   1   0           -1.51743 
    291    Cu27    Zr47      3.04614       0   1   0           -0.58520 
    292    Cu27    Zr51      2.96930       0   0   0           -0.71507 
    293    Cu27    Zr52      3.10613       0   0   0           -0.53936 
    294    Cu27    Cu53      2.31512       0   0   0           -0.72107 
    295    Cu27    Zr57      4.07518       0   0   0           -0.06720 
    296    Cu27    Cu69      2.44762       0   1   0           -0.64610 
    297    Cu27    Zr70      2.96327       0   1   0           -0.70182 
    298    Cu27    Cu95      4.19621       0   1   0           -0.00124 
    299    Cu28    Zr29      2.94707       0   0   0           -0.76840 
    300    Cu28    Cu35      3.32000       0   0   0           -0.07672 
    301    Cu28    Zr47      3.03519       0   1   0           -0.59631 
    302    Cu28    Zr48      2.72549       0   1   0           -1.24980 
    303    Cu28    Cu53      2.47217       0   0   0           -0.52875 
    304    Cu28    Zr54      3.57389       0   0   0           -0.24109 
    305    Cu28    Zr70      3.42857       0   1   0           -0.29818 
    306    Zr29    Cu30      2.82021       0   0   0           -0.99351 
    307    Zr29    Cu35      2.81983       0   0   0           -1.09497 
    308    Zr29    Cu36      3.37404       0   0   0           -0.35777 
    309    Zr29    Zr37      3.42806       0   0   0           -0.95135 
    310    Zr29    Zr48      3.46668       0   1   0           -0.91384 
    311    Zr29    Cu53      3.99061       0   0   0           -0.06785 
    312    Zr29    Zr54      3.34013       0   0   0           -1.17124 
    313    Zr29    Cu78      4.11766       1   0   0           -0.05878 
    314    Zr29    Zr85      3.32013       1   0   0           -1.25462 
    315    Cu30    Zr31      2.95204       0   0   0           -0.74477 
    316    Cu30    Zr32      2.84770       0   0   0           -0.93322 
    317    Cu30    Zr37      2.93816       0   0   0           -0.71463 
    318    Cu30    Zr38      3.05013       0   0   0           -0.62025 
    319    Cu30    Zr48      3.77817       0   1   0           -0.12111 
    320    Cu30    Zr54      2.76132       0   0   0           -1.11148 
    321    Cu30    Zr55      4.05759       0   0   0           -0.07752 
    322    Cu30    Cu61      2.31752       0   0   0           -0.77197 
    323    Zr31    Zr32      3.06779       0   0   0           -1.83934 
    324    Zr31    Zr46      3.01472       0   1  -1           -2.10512 
    325    Zr31    Zr48      3.16167       0   1   0           -1.58047 
    326    Zr31    Cu49      2.87390       0   1   0           -0.87819 
    327    Zr31    Zr50      3.42621       0   1   0           -0.96317 
    328    Zr31    Zr51      3.45924       0   0  -1           -0.87312 
    329    Zr31    Zr54      3.32793       0   0   0           -1.04631 
    330    Zr31    Zr55      2.79157       0   0   0           -3.15090 
    331    Zr31    Cu61      3.32925       0   0   0           -0.32407 
    332    Zr31    Cu72      2.71321       0   1   0           -1.15081 
    333    Zr31    Zr73      3.61832       0   1   0           -0.70346 
    334    Zr31    Cu74      2.87485       0   1   0           -0.79438 
    335    Zr31    Cu99      4.06081       0   1   0           -0.08115 
    336    Zr32    Zr33      3.87475       0   0  -1           -0.44230 
    337    Zr32    Zr38      3.99062       0   0   0           -0.41825 
    338    Zr32    Zr46      3.34188       0   1  -1           -1.05008 
    339    Zr32    Zr50      3.28104       0   1   0           -1.26400 
    340    Zr32    Zr51      3.26915       0   0  -1           -1.24869 
    341    Zr32    Cu61      3.43245       0   0   0           -0.27677 
    342    Zr33    Al34      2.95033       0   0   0           -1.83115 
    343    Zr33    Zr38      3.05672       0   0   1           -2.03508 
    344    Zr33    Cu39      2.76241       0   0   0           -0.87527 
    345    Zr33    Zr44      3.63182       0   0   1           -0.68681 
    346    Zr33    Zr51      3.31708       0   0   0           -1.22799 
    347    Zr33    Cu56      2.77582       0   0   0           -1.09250 
    348    Zr33    Zr57      3.15146       0   0   0           -1.44504 
    349    Zr33    Zr60      3.20640       0   0   1           -1.42581 
    350    Zr33    Cu61      2.90899       0   0   1           -0.90696 
    351    Zr33    Zr62      3.45681       0   0   0           -0.77405 
    352    Zr33    Cu66      2.97303       0   0   1           -0.80334 
    353    Zr33    Cu67      3.16005       0   0   1           -0.52665 
    354    Zr33    Cu75      4.17020       0   0   0           -0.05526 
    355    Al34    Cu35      2.56925       0   0   0           -1.35800 
    356    Al34    Cu36      2.79205       0   0   0           -0.90135 
    357    Al34    Cu39      2.55715       0   0   0           -1.39459 
    358    Al34    Zr40      2.89239       0   0   0           -2.01505 
    359    Al34    Zr41      2.93218       0   0   0           -1.88475 
    360    Al34    Cu53      4.14572       0   0   0           -0.04248 
    361    Al34    Cu56      4.06565       0   0   0           -0.04675 
    362    Al34    Zr57      3.01149       0   0   0           -1.71020 
    363    Al34    Cu58      4.06428       0   0   0           -0.04512 
    364    Al34    Zr62      3.10902       0   0   0           -1.38548 
    365    Al34    Cu63      3.81754       0   0   0           -0.11755 
    366    Cu35    Cu36      2.57163       0   0   0           -0.28963 
    367    Cu35    Zr37      2.79494       0   0   0           -1.09727 
    368    Cu35    Zr41      3.11702       0   0   0           -0.38329 
    369    Cu35    Cu53      2.44211       0   0   0           -0.59961 
    370    Cu35    Zr54      3.11893       0   0   0           -0.65743 
    371    Cu35    Zr57      2.96238       0   0   0           -0.55035 
    372    Cu35    Cu58      2.52284       0   0   0           -0.49137 
    373    Cu35    Cu63      4.05756       0   0   0           -0.00162 
    374    Cu36    Zr37      2.95527       0   0   0           -0.75934 
    375    Cu36    Zr40      2.75281       0   0   0           -0.82156 
    376    Cu36    Zr41      2.67349       0   0   0           -1.00597 
    377    Cu36    Zr42      2.91192       0   0   0           -0.76545 
    378    Cu36    Cu43      4.02779       0   0   0           -0.01615 
    379    Zr37    Zr38      2.97005       0   0   0           -2.15570 
    380    Zr37    Zr41      3.02144       0   0   0           -1.99291 
    381    Zr37    Zr42      3.99386       0   0   0           -0.36097 
    382    Zr37    Cu43      2.72146       0   0   0           -1.09571 
    383    Zr37    Zr54      3.16420       0   0   0           -1.52395 
    384    Zr37    Cu58      2.72196       0   0   0           -1.10810 
    385    Zr37    Zr59      3.74581       0   0   0           -0.57888 
    386    Zr37    Cu61      3.08942       0   0   0           -0.60385 
    387    Zr37    Zr65      3.33399       0   0   0           -1.18125 
    388    Zr37    Cu66      2.94277       0   0   0           -0.70080 
    389    Zr38    Cu39      2.94335       0   0  -1           -0.81436 
    390    Zr38    Cu43      3.23149       0   0   0           -0.39269 
    391    Zr38    Zr44      3.29652       0   0   0           -1.23195 
    392    Zr38    Cu61      3.13038       0   0   0           -0.54080 
    393    Zr38    Cu66      2.98067       0   0   0           -0.70974 
    394    Cu39    Zr40      3.07709       0   0   0           -0.43405 
    395    Cu39    Zr44      2.76386       0   0   1           -1.15273 
    396    Cu39    Cu45      2.73104       0   0   0           -0.32047 
    397    Cu39    Zr62      3.11964       0   0   0           -0.43333 
    398    Zr40    Zr41      3.25409       0   0   0           -1.15963 
    399    Zr40    Zr42      3.10946       0   0   0           -1.73492 
    400    Zr40    Cu45      2.89702       0   0   0           -0.80209 
    401    Zr40    Zr47      2.99280       0   0   0           -2.29931 
    402    Zr40    Zr62      3.52726       0   0   0           -0.66558 
    403    Zr40    Al89      3.08813       1   0   0           -1.52383 
    404    Zr41    Zr42      3.10699       0   0   0           -1.69337 
    405    Zr41    Cu43      3.15325       0   0   0           -0.53482 
    406    Zr41    Zr47      3.38179       0   0   0           -1.01663 
    407    Zr41    Zr57      3.88982       0   0   0           -0.37653 
    408    Zr41    Cu58      2.96995       0   0   0           -0.65910 
    409    Zr41    Zr62      3.31660       0   0   0           -1.03693 