
     Program PWSCF v.6.2 (svn rev. 13949:13950) starts on 20May2019 at 19:14:18 

     This program is part of the open-source Quantum ESPRESSO suite
     for quantum simulation of materials; please cite
         "P. Giannozzi et al., J. Phys.:Condens. Matter 21 395502 (2009);
         "P. Giannozzi et al., J. Phys.:Condens. Matter 29 465901 (2017);
          URL http://www.quantum-espresso.org", 
     in publications or presentations arising from this work. More details at
     http://www.quantum-espresso.org/quote

     Parallel version (MPI & OpenMP), running on     192 processor cores
     Number of MPI processes:               192
     Threads/MPI process:                     1

     MPI processes distributed on     8 nodes
     K-points division:     npool     =       8
     R & G space division:  proc/nbgrp/npool/nimage =      24
     Waiting for input...
     Reading input from standard input

     Current dimensions of program PWSCF are:
     Max number of different atomic species (ntypx) = 10
     Max number of k-points (npk) =  40000
     Max angular momentum in pseudopotentials (lmaxx) =  3
               file Al.aryjr-1.0.0-ld1.UPF: wavefunction(s)  3S 3P renormalized
               file Cu.aryjr-1.0.0-ld1.UPF: wavefunction(s)  4S 3P 3D renormalized
               file Zr.aryjr-1.0.0-ld1.UPF: wavefunction(s)  4S 4P renormalized

     Subspace diagonalization in iterative solution of the eigenvalue problem:
     one sub-group per band group will be used
     scalapack distributed-memory algorithm (size of sub-group:  3*  3 procs)

 
     Parallelization info
     --------------------
     sticks:   dense  smooth     PW     G-vecs:    dense   smooth      PW
     Min         956     477    123               108930    38508    5027
     Max         957     479    124               108933    38511    5030
     Sum       22957   11489   2957              2614359   924249  120665
 

     Title: 
     Zr45Cu45Al10                                                               


     bravais-lattice index     =            0
     lattice parameter (alat)  =      22.6898  a.u.
     unit-cell volume          =   11681.2492 (a.u.)^3
     number of atoms/cell      =          100
     number of atomic types    =            3
     number of electrons       =      1425.00
     number of Kohn-Sham states=         1034
     kinetic-energy cutoff     =      70.0000  Ry
     charge density cutoff     =     560.0000  Ry
     convergence threshold     =      1.0E-06
     mixing beta               =       0.4000
     number of iterations used =            8  plain     mixing
     Exchange-correlation      =  SLA  PW   PBX  PBC ( 1  4  3  4 0 0)

     celldm(1)=  22.689753  celldm(2)=   0.000000  celldm(3)=   0.000000
     celldm(4)=   0.000000  celldm(5)=   0.000000  celldm(6)=   0.000000

     crystal axes: (cart. coord. in units of alat)
               a(1) = (   1.000000   0.000000   0.000000 )  
               a(2) = (   0.000000   1.000000   0.000000 )  
               a(3) = (   0.000000   0.000000   1.000000 )  

     reciprocal axes: (cart. coord. in units 2 pi/alat)
               b(1) = (  1.000000  0.000000  0.000000 )  
               b(2) = (  0.000000  1.000000  0.000000 )  
               b(3) = (  0.000000  0.000000  1.000000 )  


     PseudoPot. # 1 for Al read from file:
     /scratch/rmnvm/ary.junior/UPFs/Al.aryjr-1.0.0-ld1.UPF
     MD5 check sum: 23518be3108914e66f28d0b5ae5ea896
     Pseudo is Projector augmented-wave + core cor, Zval =  3.0
     Generated using "atomic" code by A. Dal Corso  v.5.3.0 svn rev. 11974
     Shape of augmentation charge: PSQ
     Using radial grid of 1135 points,  4 beta functions with: 
                l(1) =   0
                l(2) =   0
                l(3) =   1
                l(4) =   1
     Q(r) pseudized with 0 coefficients 


     PseudoPot. # 2 for Cu read from file:
     /scratch/rmnvm/ary.junior/UPFs/Cu.aryjr-1.0.0-ld1.UPF
     MD5 check sum: 9308548b6d8348cb0f7fa79efd90ef1e
     Pseudo is Projector augmented-wave + core cor, Zval = 19.0
     Generated using "atomic" code by A. Dal Corso  v.5.3.0 svn rev. 11974
     Shape of augmentation charge: PSQ
     Using radial grid of 1199 points,  6 beta functions with: 
                l(1) =   0
                l(2) =   0
                l(3) =   1
                l(4) =   1
                l(5) =   2
                l(6) =   2
     Q(r) pseudized with 0 coefficients 


     PseudoPot. # 3 for Zr read from file:
     /scratch/rmnvm/ary.junior/UPFs/Zr.aryjr-1.0.0-ld1.UPF
     MD5 check sum: 20f111a850f3481eb9ed9a4dbb9cca44
     Pseudo is Projector augmented-wave + core cor, Zval = 12.0
     Generated using "atomic" code by A. Dal Corso  v.5.3.0 svn rev. 11974
     Shape of augmentation charge: PSQ
     Using radial grid of 1225 points,  6 beta functions with: 
                l(1) =   0
                l(2) =   0
                l(3) =   1
                l(4) =   1
                l(5) =   2
                l(6) =   2
     Q(r) pseudized with 0 coefficients 


     atomic species   valence    mass     pseudopotential
        Al             3.00    26.98150     Al( 1.00)
        Cu            19.00    63.54630     Cu( 1.00)
        Zr            12.00    91.22400     Zr( 1.00)

     No symmetry found


                                    s                        frac. trans.

      isym =  1     identity                                     

 cryst.   s( 1) = (     1          0          0      )
                  (     0          1          0      )
                  (     0          0          1      )

 cart.    s( 1) = (  1.0000000  0.0000000  0.0000000 )
                  (  0.0000000  1.0000000  0.0000000 )
                  (  0.0000000  0.0000000  1.0000000 )


   Cartesian axes

     site n.     atom                  positions (alat units)
         1           Cu  tau(   1) = (   0.0460120   0.0773560   0.1497870  )
         2           Cu  tau(   2) = (   0.0268110   0.0639350   0.3659800  )
         3           Al  tau(   3) = (   0.0966700   0.1869970   0.5028120  )
         4           Zr  tau(   4) = (   0.2507820   0.1550860   0.6941290  )
         5           Zr  tau(   5) = (   0.1112430   0.1874210   0.9315150  )
         6           Zr  tau(   6) = (   0.2235810   0.3829770   0.0517900  )
         7           Zr  tau(   7) = (   0.1230540   0.2697950   0.2633690  )
         8           Zr  tau(   8) = (  -0.0102800   0.4035160   0.4307920  )
         9           Zr  tau(   9) = (   0.0649900   0.3617190   0.6699630  )
        10           Cu  tau(  10) = (   0.2166150   0.3668240   0.8163870  )
        11           Cu  tau(  11) = (   0.0909880   0.5670330   0.0883750  )
        12           Cu  tau(  12) = (   0.1834010   0.7261230   0.1913380  )
        13           Zr  tau(  13) = (   0.2200700   0.5186270   0.2776390  )
        14           Al  tau(  14) = (   0.1826570   0.7451750   0.4077360  )
        15           Cu  tau(  15) = (   0.1150520   0.5751710   0.5075030  )
        16           Zr  tau(  16) = (  -0.0015330   0.6043110   0.7035920  )
        17           Cu  tau(  17) = (   0.1554330   0.5411800   0.8839030  )
        18           Cu  tau(  18) = (  -0.0201090   0.6201750   0.9375520  )
        19           Cu  tau(  19) = (   0.1489890   0.9679330   0.0253390  )
        20           Zr  tau(  20) = (   0.1723320   0.9324690   0.2531400  )
        21           Zr  tau(  21) = (   0.1446470   0.9598680   0.5591150  )
        22           Cu  tau(  22) = (   0.1577280   0.7691390   0.6595080  )
        23           Cu  tau(  23) = (   0.1341640   0.9875360   0.7965210  )
        24           Zr  tau(  24) = (   0.1281860   0.7833570   0.8884150  )
        25           Zr  tau(  25) = (   0.2874390   0.1393700   0.1204420  )
        26           Cu  tau(  26) = (   0.4757790   0.0498000   0.0311590  )
        27           Cu  tau(  27) = (   0.4945290   0.1428420   0.2216370  )
        28           Zr  tau(  28) = (   0.3110580   0.1318030   0.4021640  )
        29           Cu  tau(  29) = (   0.4605190   0.2135350   0.5928430  )
        30           Zr  tau(  30) = (   0.4408770  -0.0053420   0.5719580  )
        31           Cu  tau(  31) = (   0.3077700   0.0359670   0.9127310  )
        32           Cu  tau(  32) = (   0.3432140   0.2326420   0.9065420  )
        33           Cu  tau(  33) = (   0.4155120   0.4832590   0.1220180  )
        34           Al  tau(  34) = (   0.3683430   0.3222790   0.2541550  )
        35           Zr  tau(  35) = (   0.2686690   0.3637080   0.4983970  )
        36           Cu  tau(  36) = (   0.4907030   0.2831970   0.4131440  )
        37           Cu  tau(  37) = (   0.3873200   0.3369210   0.7268130  )
        38           Zr  tau(  38) = (   0.4435820   0.4882430   0.8983130  )
        39           Cu  tau(  39) = (   0.2779100   0.6199760   0.0418820  )
        40           Zr  tau(  40) = (   0.3954120   0.7326770   0.2915590  )
        41           Cu  tau(  41) = (   0.3307980   0.5900140   0.4701660  )
        42           Cu  tau(  42) = (   0.4744410   0.6643620   0.7237330  )
        43           Zr  tau(  43) = (   0.2704170   0.5665810   0.6886730  )
        44           Cu  tau(  44) = (   0.3653540   0.7097560   0.8867450  )
        45           Zr  tau(  45) = (   0.3295950   0.8567680   0.0704020  )
        46           Cu  tau(  46) = (   0.3929100   0.9650310   0.2480600  )
        47           Cu  tau(  47) = (   0.3205660   0.9060940   0.4180430  )
        48           Cu  tau(  48) = (   0.3361430   0.7777970   0.5625710  )
        49           Zr  tau(  49) = (   0.3314300   0.8817440   0.7673330  )
        50           Al  tau(  50) = (   0.7112030   0.1597110   0.1225710  )
        51           Zr  tau(  51) = (   0.6494680   0.0893850   0.3725120  )
        52           Zr  tau(  52) = (   0.6898150   0.1560600   0.6393870  )
        53           Zr  tau(  53) = (   0.5088250   0.0985420   0.8102980  )
        54           Cu  tau(  54) = (   0.6729100   0.0246600   0.9782040  )
        55           Zr  tau(  55) = (   0.5361240   0.2948220   0.0260900  )
        56           Cu  tau(  56) = (   0.6173710   0.4887960   0.1303890  )
        57           Cu  tau(  57) = (   0.6238370   0.2963530   0.2521120  )
        58           Cu  tau(  58) = (   0.6956310   0.3097340   0.4636850  )
        59           Zr  tau(  59) = (   0.5103290   0.5011640   0.3284480  )
        60           Zr  tau(  60) = (   0.5088690   0.4435770   0.5733430  )
        61           Cu  tau(  61) = (   0.5977890   0.3234680   0.7687850  )
        62           Al  tau(  62) = (   0.6937400   0.4441210   0.9111750  )
        63           Zr  tau(  63) = (   0.5197980   0.6705330   0.0706590  )
        64           Cu  tau(  64) = (   0.6215930   0.7017130   0.2902770  )
        65           Zr  tau(  65) = (   0.5446320   0.6947990   0.5182280  )
        66           Cu  tau(  66) = (   0.6995550   0.5415260   0.5342070  )
        67           Cu  tau(  67) = (   0.6373610   0.5399630   0.7363250  )
        68           Zr  tau(  68) = (   0.6476190   0.7151940   0.8796910  )
        69           Zr  tau(  69) = (   0.6020000   0.9154150   0.1675320  )
        70           Cu  tau(  70) = (   0.5534290   0.8712720   0.3877960  )
        71           Al  tau(  71) = (   0.6595690   0.9236140   0.5690400  )
        72           Cu  tau(  72) = (   0.5562290   0.8530200   0.7215350  )
        73           Zr  tau(  73) = (   0.7488200   0.9591790   0.7768110  )
        74           Al  tau(  74) = (   0.5149120   0.8867820   0.9261190  )
        75           Cu  tau(  75) = (   0.9210010   0.2200560   0.0830490  )
        76           Zr  tau(  76) = (   0.8673840   0.2391220   0.2973570  )
        77           Zr  tau(  77) = (   0.8712790   0.0001950   0.5133530  )
        78           Zr  tau(  78) = (   0.9704340   0.1338540   0.7196510  )
        79           Zr  tau(  79) = (   0.7664290   0.2147550   0.8923800  )
        80           Zr  tau(  80) = (   0.9229620   0.0054700   0.9498550  )
        81           Cu  tau(  81) = (   0.7891810   0.3767030   0.0953900  )
        82           Al  tau(  82) = (   0.9692460   0.4359830   0.1803730  )
        83           Zr  tau(  83) = (   0.7663830   0.4935310   0.3141640  )
        84           Cu  tau(  84) = (   0.8725780   0.2260280   0.5253250  )
        85           Zr  tau(  85) = (   0.8086570   0.4009170   0.6753730  )
        86           Zr  tau(  86) = (   0.9488800   0.3897110   0.9088080  )
        87           Zr  tau(  87) = (   0.8039290   0.6012360   0.0864980  )
        88           Zr  tau(  88) = (   0.9806910   0.6453830   0.3128350  )
        89           Cu  tau(  89) = (   0.8031430   0.7765900   0.2141780  )
        90           Zr  tau(  90) = (   0.7684190   0.7349990   0.6560790  )
        91           Cu  tau(  91) = (   0.8853690   0.5689790   0.5239330  )
        92           Cu  tau(  92) = (   0.8141030   0.5809290   0.8406060  )
        93           Zr  tau(  93) = (   0.9912420   0.8077640   0.0939900  )
        94           Cu  tau(  94) = (   0.7605370   0.8460810   0.0089870  )
        95           Zr  tau(  95) = (   0.8496880   0.9892270   0.2250530  )
        96           Zr  tau(  96) = (   0.7829770   0.7769160   0.4239790  )
        97           Cu  tau(  97) = (   0.9981650   0.8641690   0.3655010  )
        98           Cu  tau(  98) = (   0.9949150   0.7685000   0.5389230  )
        99           Al  tau(  99) = (   0.9687560   0.8813120   0.7059240  )
       100           Al  tau( 100) = (   0.8784740   0.7760390   0.8618710  )

   Crystallographic axes

     site n.     atom                  positions (cryst. coord.)
         1           Cu  tau(   1) = (  0.0460120  0.0773560  0.1497870  )
         2           Cu  tau(   2) = (  0.0268110  0.0639350  0.3659800  )
         3           Al  tau(   3) = (  0.0966700  0.1869970  0.5028120  )
         4           Zr  tau(   4) = (  0.2507820  0.1550860  0.6941290  )
         5           Zr  tau(   5) = (  0.1112430  0.1874210  0.9315150  )
         6           Zr  tau(   6) = (  0.2235810  0.3829770  0.0517900  )
         7           Zr  tau(   7) = (  0.1230540  0.2697950  0.2633690  )
         8           Zr  tau(   8) = ( -0.0102800  0.4035160  0.4307920  )
         9           Zr  tau(   9) = (  0.0649900  0.3617190  0.6699630  )
        10           Cu  tau(  10) = (  0.2166150  0.3668240  0.8163870  )
        11           Cu  tau(  11) = (  0.0909880  0.5670330  0.0883750  )
        12           Cu  tau(  12) = (  0.1834010  0.7261230  0.1913380  )
        13           Zr  tau(  13) = (  0.2200700  0.5186270  0.2776390  )
        14           Al  tau(  14) = (  0.1826570  0.7451750  0.4077360  )
        15           Cu  tau(  15) = (  0.1150520  0.5751710  0.5075030  )
        16           Zr  tau(  16) = ( -0.0015330  0.6043110  0.7035920  )
        17           Cu  tau(  17) = (  0.1554330  0.5411800  0.8839030  )
        18           Cu  tau(  18) = ( -0.0201090  0.6201750  0.9375520  )
        19           Cu  tau(  19) = (  0.1489890  0.9679330  0.0253390  )
        20           Zr  tau(  20) = (  0.1723320  0.9324690  0.2531400  )
        21           Zr  tau(  21) = (  0.1446470  0.9598680  0.5591150  )
        22           Cu  tau(  22) = (  0.1577280  0.7691390  0.6595080  )
        23           Cu  tau(  23) = (  0.1341640  0.9875360  0.7965210  )
        24           Zr  tau(  24) = (  0.1281860  0.7833570  0.8884150  )
        25           Zr  tau(  25) = (  0.2874390  0.1393700  0.1204420  )
        26           Cu  tau(  26) = (  0.4757790  0.0498000  0.0311590  )
        27           Cu  tau(  27) = (  0.4945290  0.1428420  0.2216370  )
        28           Zr  tau(  28) = (  0.3110580  0.1318030  0.4021640  )
        29           Cu  tau(  29) = (  0.4605190  0.2135350  0.5928430  )
        30           Zr  tau(  30) = (  0.4408770 -0.0053420  0.5719580  )
        31           Cu  tau(  31) = (  0.3077700  0.0359670  0.9127310  )
        32           Cu  tau(  32) = (  0.3432140  0.2326420  0.9065420  )
        33           Cu  tau(  33) = (  0.4155120  0.4832590  0.1220180  )
        34           Al  tau(  34) = (  0.3683430  0.3222790  0.2541550  )
        35           Zr  tau(  35) = (  0.2686690  0.3637080  0.4983970  )
        36           Cu  tau(  36) = (  0.4907030  0.2831970  0.4131440  )
        37           Cu  tau(  37) = (  0.3873200  0.3369210  0.7268130  )
        38           Zr  tau(  38) = (  0.4435820  0.4882430  0.8983130  )
        39           Cu  tau(  39) = (  0.2779100  0.6199760  0.0418820  )
        40           Zr  tau(  40) = (  0.3954120  0.7326770  0.2915590  )
        41           Cu  tau(  41) = (  0.3307980  0.5900140  0.4701660  )
        42           Cu  tau(  42) = (  0.4744410  0.6643620  0.7237330  )
        43           Zr  tau(  43) = (  0.2704170  0.5665810  0.6886730  )
        44           Cu  tau(  44) = (  0.3653540  0.7097560  0.8867450  )
        45           Zr  tau(  45) = (  0.3295950  0.8567680  0.0704020  )
        46           Cu  tau(  46) = (  0.3929100  0.9650310  0.2480600  )
        47           Cu  tau(  47) = (  0.3205660  0.9060940  0.4180430  )
        48           Cu  tau(  48) = (  0.3361430  0.7777970  0.5625710  )
        49           Zr  tau(  49) = (  0.3314300  0.8817440  0.7673330  )
        50           Al  tau(  50) = (  0.7112030  0.1597110  0.1225710  )
        51           Zr  tau(  51) = (  0.6494680  0.0893850  0.3725120  )
        52           Zr  tau(  52) = (  0.6898150  0.1560600  0.6393870  )
        53           Zr  tau(  53) = (  0.5088250  0.0985420  0.8102980  )
        54           Cu  tau(  54) = (  0.6729100  0.0246600  0.9782040  )
        55           Zr  tau(  55) = (  0.5361240  0.2948220  0.0260900  )
        56           Cu  tau(  56) = (  0.6173710  0.4887960  0.1303890  )
        57           Cu  tau(  57) = (  0.6238370  0.2963530  0.2521120  )
        58           Cu  tau(  58) = (  0.6956310  0.3097340  0.4636850  )
        59           Zr  tau(  59) = (  0.5103290  0.5011640  0.3284480  )
        60           Zr  tau(  60) = (  0.5088690  0.4435770  0.5733430  )
        61           Cu  tau(  61) = (  0.5977890  0.3234680  0.7687850  )
        62           Al  tau(  62) = (  0.6937400  0.4441210  0.9111750  )
        63           Zr  tau(  63) = (  0.5197980  0.6705330  0.0706590  )
        64           Cu  tau(  64) = (  0.6215930  0.7017130  0.2902770  )
        65           Zr  tau(  65) = (  0.5446320  0.6947990  0.5182280  )
        66           Cu  tau(  66) = (  0.6995550  0.5415260  0.5342070  )
        67           Cu  tau(  67) = (  0.6373610  0.5399630  0.7363250  )
        68           Zr  tau(  68) = (  0.6476190  0.7151940  0.8796910  )
        69           Zr  tau(  69) = (  0.6020000  0.9154150  0.1675320  )
        70           Cu  tau(  70) = (  0.5534290  0.8712720  0.3877960  )
        71           Al  tau(  71) = (  0.6595690  0.9236140  0.5690400  )
        72           Cu  tau(  72) = (  0.5562290  0.8530200  0.7215350  )
        73           Zr  tau(  73) = (  0.7488200  0.9591790  0.7768110  )
        74           Al  tau(  74) = (  0.5149120  0.8867820  0.9261190  )
        75           Cu  tau(  75) = (  0.9210010  0.2200560  0.0830490  )
        76           Zr  tau(  76) = (  0.8673840  0.2391220  0.2973570  )
        77           Zr  tau(  77) = (  0.8712790  0.0001950  0.5133530  )
        78           Zr  tau(  78) = (  0.9704340  0.1338540  0.7196510  )
        79           Zr  tau(  79) = (  0.7664290  0.2147550  0.8923800  )
        80           Zr  tau(  80) = (  0.9229620  0.0054700  0.9498550  )
        81           Cu  tau(  81) = (  0.7891810  0.3767030  0.0953900  )
        82           Al  tau(  82) = (  0.9692460  0.4359830  0.1803730  )
        83           Zr  tau(  83) = (  0.7663830  0.4935310  0.3141640  )
        84           Cu  tau(  84) = (  0.8725780  0.2260280  0.5253250  )
        85           Zr  tau(  85) = (  0.8086570  0.4009170  0.6753730  )
        86           Zr  tau(  86) = (  0.9488800  0.3897110  0.9088080  )
        87           Zr  tau(  87) = (  0.8039290  0.6012360  0.0864980  )
        88           Zr  tau(  88) = (  0.9806910  0.6453830  0.3128350  )
        89           Cu  tau(  89) = (  0.8031430  0.7765900  0.2141780  )
        90           Zr  tau(  90) = (  0.7684190  0.7349990  0.6560790  )
        91           Cu  tau(  91) = (  0.8853690  0.5689790  0.5239330  )
        92           Cu  tau(  92) = (  0.8141030  0.5809290  0.8406060  )
        93           Zr  tau(  93) = (  0.9912420  0.8077640  0.0939900  )
        94           Cu  tau(  94) = (  0.7605370  0.8460810  0.0089870  )
        95           Zr  tau(  95) = (  0.8496880  0.9892270  0.2250530  )
        96           Zr  tau(  96) = (  0.7829770  0.7769160  0.4239790  )
        97           Cu  tau(  97) = (  0.9981650  0.8641690  0.3655010  )
        98           Cu  tau(  98) = (  0.9949150  0.7685000  0.5389230  )
        99           Al  tau(  99) = (  0.9687560  0.8813120  0.7059240  )
       100           Al  tau( 100) = (  0.8784740  0.7760390  0.8618710  )

     number of k points=     8  Fermi-Dirac smearing, width (Ry)=  0.0080
                       cart. coord. in units 2pi/alat
        k(    1) = (   0.2500000   0.2500000   0.2500000), wk =   0.2500000
        k(    2) = (   0.2500000   0.2500000  -0.2500000), wk =   0.2500000
        k(    3) = (   0.2500000  -0.2500000   0.2500000), wk =   0.2500000
        k(    4) = (   0.2500000  -0.2500000  -0.2500000), wk =   0.2500000
        k(    5) = (  -0.2500000   0.2500000   0.2500000), wk =   0.2500000
        k(    6) = (  -0.2500000   0.2500000  -0.2500000), wk =   0.2500000
        k(    7) = (  -0.2500000  -0.2500000   0.2500000), wk =   0.2500000
        k(    8) = (  -0.2500000  -0.2500000  -0.2500000), wk =   0.2500000

                       cryst. coord.
        k(    1) = (   0.2500000   0.2500000   0.2500000), wk =   0.2500000
        k(    2) = (   0.2500000   0.2500000  -0.2500000), wk =   0.2500000
        k(    3) = (   0.2500000  -0.2500000   0.2500000), wk =   0.2500000
        k(    4) = (   0.2500000  -0.2500000  -0.2500000), wk =   0.2500000
        k(    5) = (  -0.2500000   0.2500000   0.2500000), wk =   0.2500000
        k(    6) = (  -0.2500000   0.2500000  -0.2500000), wk =   0.2500000
        k(    7) = (  -0.2500000  -0.2500000   0.2500000), wk =   0.2500000
        k(    8) = (  -0.2500000  -0.2500000  -0.2500000), wk =   0.2500000

     Dense  grid:  2614359 G-vectors     FFT dimensions: ( 180, 180, 180)

     Smooth grid:   924249 G-vectors     FFT dimensions: ( 125, 125, 125)

     Dynamical RAM for                 wfc:      75.94 MB

     Dynamical RAM for     wfc (w. buffer):      75.94 MB

     Dynamical RAM for           str. fact:       4.99 MB

     Dynamical RAM for           local pot:       0.00 MB

     Dynamical RAM for          nlocal pot:     124.85 MB

     Dynamical RAM for                qrad:      20.55 MB

     Dynamical RAM for          rho,v,vnew:      10.92 MB

     Dynamical RAM for               rhoin:       3.64 MB

     Dynamical RAM for            rho*nmix:      26.59 MB

     Dynamical RAM for           G-vectors:       6.53 MB

     Dynamical RAM for          h,s,v(r/c):      86.92 MB

     Dynamical RAM for          <psi|beta>:      26.82 MB

     Dynamical RAM for                 psi:     303.75 MB

     Dynamical RAM for                hpsi:     303.75 MB

     Dynamical RAM for                spsi:     303.75 MB

     Dynamical RAM for      wfcinit/wfcrot:     184.36 MB

     Dynamical RAM for           addusdens:     383.96 MB

     Dynamical RAM for          addusforce:     805.72 MB

     Estimated static dynamical RAM per process >     290.54 MB

     Estimated max dynamical RAM per process >       1.28 GB

     Estimated total dynamical RAM >     246.66 GB

     Initial potential from superposition of free atoms

     starting charge 1424.86784, renormalised to 1425.00000
     Starting wfc are 1075 randomized atomic wfcs
     Checking if some PAW data can be deallocated... 
       PAW data deallocated on  174 nodes for type:  1
       PAW data deallocated on  105 nodes for type:  2
       PAW data deallocated on  105 nodes for type:  3

     total cpu time spent up to now is       37.3 secs

     Self-consistent Calculation

     iteration #  1     ecut=    70.00 Ry     beta= 0.40
     Davidson diagonalization with overlap
     ethr =  1.00E-02,  avg # of iterations =  4.0

     total cpu time spent up to now is      231.4 secs

     total energy              =  -35998.81877946 Ry
     Harris-Foulkes estimate   =  -36141.85981639 Ry
     estimated scf accuracy    <     232.70879913 Ry

     iteration #  2     ecut=    70.00 Ry     beta= 0.40
     Davidson diagonalization with overlap
     ethr =  1.00E-02,  avg # of iterations =  3.0

     total cpu time spent up to now is      432.3 secs

     total energy              =  -36051.28162363 Ry
     Harris-Foulkes estimate   =  -36294.61911406 Ry
     estimated scf accuracy    <    1141.00290994 Ry

     iteration #  3     ecut=    70.00 Ry     beta= 0.40
     Davidson diagonalization with overlap
     ethr =  1.00E-02,  avg # of iterations =  3.0

     total cpu time spent up to now is      600.6 secs

     total energy              =  -36098.04840587 Ry
     Harris-Foulkes estimate   =  -36195.57227303 Ry
     estimated scf accuracy    <     771.92839906 Ry

     iteration #  4     ecut=    70.00 Ry     beta= 0.40
     Davidson diagonalization with overlap
     ethr =  1.00E-02,  avg # of iterations =  3.0

     total cpu time spent up to now is      721.6 secs

     total energy              =  -36131.54383995 Ry
     Harris-Foulkes estimate   =  -36152.48692834 Ry
     estimated scf accuracy    <     156.98506925 Ry

     iteration #  5     ecut=    70.00 Ry     beta= 0.40
     Davidson diagonalization with overlap
     ethr =  1.00E-02,  avg # of iterations =  1.0

     total cpu time spent up to now is      813.4 secs

     total energy              =  -36133.77946044 Ry
     Harris-Foulkes estimate   =  -36140.59850241 Ry
     estimated scf accuracy    <      86.35813600 Ry

     iteration #  6     ecut=    70.00 Ry     beta= 0.40
     Davidson diagonalization with overlap
     ethr =  6.06E-03,  avg # of iterations =  1.0

     total cpu time spent up to now is      905.4 secs

     total energy              =  -36132.98560409 Ry
     Harris-Foulkes estimate   =  -36137.19680591 Ry
     estimated scf accuracy    <      58.39844462 Ry

     iteration #  7     ecut=    70.00 Ry     beta= 0.40
     Davidson diagonalization with overlap
     ethr =  4.10E-03,  avg # of iterations =  1.0

     total cpu time spent up to now is      997.3 secs

     total energy              =  -36131.32432969 Ry
     Harris-Foulkes estimate   =  -36134.35579258 Ry
     estimated scf accuracy    <      33.98063660 Ry

     iteration #  8     ecut=    70.00 Ry     beta= 0.40
     Davidson diagonalization with overlap
     ethr =  2.38E-03,  avg # of iterations =  1.0

     total cpu time spent up to now is     1089.4 secs

     total energy              =  -36130.22011600 Ry
     Harris-Foulkes estimate   =  -36132.19737107 Ry
     estimated scf accuracy    <      20.27469101 Ry

     iteration #  9     ecut=    70.00 Ry     beta= 0.40
     Davidson diagonalization with overlap
     ethr =  1.42E-03,  avg # of iterations =  1.0

     total cpu time spent up to now is     1181.1 secs

     total energy              =  -36129.47305369 Ry
     Harris-Foulkes estimate   =  -36131.15356831 Ry
     estimated scf accuracy    <      17.20091562 Ry

     iteration # 10     ecut=    70.00 Ry     beta= 0.40
     Davidson diagonalization with overlap
     ethr =  1.21E-03,  avg # of iterations =  1.0

     total cpu time spent up to now is     1272.9 secs

     total energy              =  -36129.01336881 Ry
     Harris-Foulkes estimate   =  -36130.23151712 Ry
     estimated scf accuracy    <       4.61441882 Ry

     iteration # 11     ecut=    70.00 Ry     beta= 0.40
     Davidson diagonalization with overlap
     ethr =  3.24E-04,  avg # of iterations =  4.2

     total cpu time spent up to now is     1427.6 secs

     total energy              =  -36128.39306753 Ry
     Harris-Foulkes estimate   =  -36131.09926238 Ry
     estimated scf accuracy    <      32.84312126 Ry

     iteration # 12     ecut=    70.00 Ry     beta= 0.40
     Davidson diagonalization with overlap
     ethr =  3.24E-04,  avg # of iterations =  2.0

     total cpu time spent up to now is     1530.3 secs

     total energy              =  -36129.38502518 Ry
     Harris-Foulkes estimate   =  -36130.18714492 Ry
     estimated scf accuracy    <       5.05214652 Ry

     iteration # 13     ecut=    70.00 Ry     beta= 0.40
     Davidson diagonalization with overlap
     ethr =  3.24E-04,  avg # of iterations =  2.5

     total cpu time spent up to now is     1640.4 secs

     total energy              =  -36129.39742490 Ry
     Harris-Foulkes estimate   =  -36130.36717346 Ry
     estimated scf accuracy    <      13.48120765 Ry

     iteration # 14     ecut=    70.00 Ry     beta= 0.40
     Davidson diagonalization with overlap
     ethr =  3.24E-04,  avg # of iterations =  1.4

     total cpu time spent up to now is     1739.8 secs

     total energy              =  -36129.82741190 Ry
     Harris-Foulkes estimate   =  -36129.92175252 Ry
     estimated scf accuracy    <       0.83902062 Ry

     iteration # 15     ecut=    70.00 Ry     beta= 0.40
     Davidson diagonalization with overlap
     ethr =  5.89E-05,  avg # of iterations =  4.0

     total cpu time spent up to now is     1868.3 secs

     total energy              =  -36129.84625407 Ry
     Harris-Foulkes estimate   =  -36129.89724083 Ry
     estimated scf accuracy    <       0.53244722 Ry

     iteration # 16     ecut=    70.00 Ry     beta= 0.40
     Davidson diagonalization with overlap
     ethr =  3.74E-05,  avg # of iterations =  4.2

     total cpu time spent up to now is     2001.1 secs

     total energy              =  -36129.79055025 Ry
     Harris-Foulkes estimate   =  -36129.96589024 Ry
     estimated scf accuracy    <       3.06758362 Ry

     iteration # 17     ecut=    70.00 Ry     beta= 0.40
     Davidson diagonalization with overlap
     ethr =  3.74E-05,  avg # of iterations =  3.2

     total cpu time spent up to now is     2120.3 secs

     total energy              =  -36129.85803994 Ry
     Harris-Foulkes estimate   =  -36129.90294138 Ry
     estimated scf accuracy    <       0.62785141 Ry

     iteration # 18     ecut=    70.00 Ry     beta= 0.40
     Davidson diagonalization with overlap
     ethr =  3.74E-05,  avg # of iterations =  1.0

     total cpu time spent up to now is     2212.2 secs

     total energy              =  -36129.87420387 Ry
     Harris-Foulkes estimate   =  -36129.88330720 Ry
     estimated scf accuracy    <       0.05882239 Ry

     iteration # 19     ecut=    70.00 Ry     beta= 0.40
     Davidson diagonalization with overlap
     ethr =  4.13E-06,  avg # of iterations =  5.5

     total cpu time spent up to now is     2366.2 secs

     total energy              =  -36129.86588858 Ry
     Harris-Foulkes estimate   =  -36129.89057003 Ry
     estimated scf accuracy    <       0.38743478 Ry

     iteration # 20     ecut=    70.00 Ry     beta= 0.40
     Davidson diagonalization with overlap
     ethr =  4.13E-06,  avg # of iterations =  3.0

     total cpu time spent up to now is     2480.0 secs

     total energy              =  -36129.86739903 Ry
     Harris-Foulkes estimate   =  -36129.88178130 Ry
     estimated scf accuracy    <       0.09230075 Ry

     iteration # 21     ecut=    70.00 Ry     beta= 0.40
     Davidson diagonalization with overlap
     ethr =  4.13E-06,  avg # of iterations =  4.8

     total cpu time spent up to now is     2625.9 secs

     total energy              =  -36129.84600142 Ry
     Harris-Foulkes estimate   =  -36129.90879801 Ry
     estimated scf accuracy    <       0.88563649 Ry

     iteration # 22     ecut=    70.00 Ry     beta= 0.40
     Davidson diagonalization with overlap
     ethr =  4.13E-06,  avg # of iterations =  5.2

     total cpu time spent up to now is     2776.1 secs

     total energy              =  -36129.87401412 Ry
     Harris-Foulkes estimate   =  -36129.88263660 Ry
     estimated scf accuracy    <       0.09199989 Ry

     iteration # 23     ecut=    70.00 Ry     beta= 0.40
     Davidson diagonalization with overlap
     ethr =  4.13E-06,  avg # of iterations =  1.0

     total cpu time spent up to now is     2868.6 secs

     total energy              =  -36129.87649605 Ry
     Harris-Foulkes estimate   =  -36129.88058571 Ry
     estimated scf accuracy    <       0.06029989 Ry

     iteration # 24     ecut=    70.00 Ry     beta= 0.40
     Davidson diagonalization with overlap
     ethr =  4.13E-06,  avg # of iterations =  1.0

     total cpu time spent up to now is     2960.2 secs

     total energy              =  -36129.87820002 Ry
     Harris-Foulkes estimate   =  -36129.87916810 Ry
     estimated scf accuracy    <       0.00882502 Ry

     iteration # 25     ecut=    70.00 Ry     beta= 0.40
     Davidson diagonalization with overlap
     ethr =  6.19E-07,  avg # of iterations =  1.0

     total cpu time spent up to now is     3051.8 secs

     total energy              =  -36129.87825297 Ry
     Harris-Foulkes estimate   =  -36129.87918227 Ry
     estimated scf accuracy    <       0.00769696 Ry

     iteration # 26     ecut=    70.00 Ry     beta= 0.40
     Davidson diagonalization with overlap
     ethr =  5.40E-07,  avg # of iterations =  1.0

     total cpu time spent up to now is     3143.5 secs

     total energy              =  -36129.87833283 Ry
     Harris-Foulkes estimate   =  -36129.87912981 Ry
     estimated scf accuracy    <       0.00894009 Ry

     iteration # 27     ecut=    70.00 Ry     beta= 0.40
     Davidson diagonalization with overlap
     ethr =  5.40E-07,  avg # of iterations =  1.0

     total cpu time spent up to now is     3235.2 secs

     total energy              =  -36129.87811813 Ry
     Harris-Foulkes estimate   =  -36129.87929547 Ry
     estimated scf accuracy    <       0.01550096 Ry

     iteration # 28     ecut=    70.00 Ry     beta= 0.40
     Davidson diagonalization with overlap
     ethr =  5.40E-07,  avg # of iterations =  1.0

     total cpu time spent up to now is     3326.9 secs

     total energy              =  -36129.87857137 Ry
     Harris-Foulkes estimate   =  -36129.87898925 Ry
     estimated scf accuracy    <       0.00510382 Ry

     iteration # 29     ecut=    70.00 Ry     beta= 0.40
     Davidson diagonalization with overlap
     ethr =  3.58E-07,  avg # of iterations =  1.0

     total cpu time spent up to now is     3418.4 secs

     total energy              =  -36129.87863350 Ry
     Harris-Foulkes estimate   =  -36129.87893262 Ry
     estimated scf accuracy    <       0.00301378 Ry

     iteration # 30     ecut=    70.00 Ry     beta= 0.40
     Davidson diagonalization with overlap
     ethr =  2.11E-07,  avg # of iterations =  1.0

     total cpu time spent up to now is     3510.2 secs

     total energy              =  -36129.87871107 Ry
     Harris-Foulkes estimate   =  -36129.87887376 Ry
     estimated scf accuracy    <       0.00223560 Ry

     iteration # 31     ecut=    70.00 Ry     beta= 0.40
     Davidson diagonalization with overlap
     ethr =  1.57E-07,  avg # of iterations =  1.0

     total cpu time spent up to now is     3601.9 secs

     total energy              =  -36129.87867650 Ry
     Harris-Foulkes estimate   =  -36129.87892630 Ry
     estimated scf accuracy    <       0.00397597 Ry

     iteration # 32     ecut=    70.00 Ry     beta= 0.40
     Davidson diagonalization with overlap
     ethr =  1.57E-07,  avg # of iterations =  1.0

     total cpu time spent up to now is     3693.5 secs

     total energy              =  -36129.87874282 Ry
     Harris-Foulkes estimate   =  -36129.87886617 Ry
     estimated scf accuracy    <       0.00119302 Ry

     iteration # 33     ecut=    70.00 Ry     beta= 0.40
     Davidson diagonalization with overlap
     ethr =  8.37E-08,  avg # of iterations =  1.0

     total cpu time spent up to now is     3785.1 secs

     total energy              =  -36129.87873236 Ry
     Harris-Foulkes estimate   =  -36129.87888222 Ry
     estimated scf accuracy    <       0.00231956 Ry

     iteration # 34     ecut=    70.00 Ry     beta= 0.40
     Davidson diagonalization with overlap
     ethr =  8.37E-08,  avg # of iterations =  1.0

     total cpu time spent up to now is     3876.7 secs

     total energy              =  -36129.87878948 Ry
     Harris-Foulkes estimate   =  -36129.87883602 Ry
     estimated scf accuracy    <       0.00051615 Ry

     iteration # 35     ecut=    70.00 Ry     beta= 0.40
     Davidson diagonalization with overlap
     ethr =  3.62E-08,  avg # of iterations =  1.0

     total cpu time spent up to now is     3968.3 secs

     total energy              =  -36129.87879673 Ry
     Harris-Foulkes estimate   =  -36129.87883502 Ry
     estimated scf accuracy    <       0.00049735 Ry

     iteration # 36     ecut=    70.00 Ry     beta= 0.40
     Davidson diagonalization with overlap
     ethr =  3.49E-08,  avg # of iterations =  1.0

     total cpu time spent up to now is     4060.7 secs

     total energy              =  -36129.87880902 Ry
     Harris-Foulkes estimate   =  -36129.87882686 Ry
     estimated scf accuracy    <       0.00020001 Ry

     iteration # 37     ecut=    70.00 Ry     beta= 0.40
     Davidson diagonalization with overlap
     ethr =  1.40E-08,  avg # of iterations =  1.0

     total cpu time spent up to now is     4152.3 secs

     total energy              =  -36129.87880458 Ry
     Harris-Foulkes estimate   =  -36129.87882832 Ry
     estimated scf accuracy    <       0.00026949 Ry

     iteration # 38     ecut=    70.00 Ry     beta= 0.40
     Davidson diagonalization with overlap
     ethr =  1.40E-08,  avg # of iterations =  1.0

     total cpu time spent up to now is     4243.9 secs

     total energy              =  -36129.87880342 Ry
     Harris-Foulkes estimate   =  -36129.87883469 Ry
     estimated scf accuracy    <       0.00046581 Ry

     iteration # 39     ecut=    70.00 Ry     beta= 0.40
     Davidson diagonalization with overlap
     ethr =  1.40E-08,  avg # of iterations =  1.0

     total cpu time spent up to now is     4336.7 secs

     total energy              =  -36129.87881285 Ry
     Harris-Foulkes estimate   =  -36129.87882543 Ry
     estimated scf accuracy    <       0.00017077 Ry

     iteration # 40     ecut=    70.00 Ry     beta= 0.40
     Davidson diagonalization with overlap
     ethr =  1.20E-08,  avg # of iterations =  1.0

     total cpu time spent up to now is     4428.4 secs

     total energy              =  -36129.87881655 Ry
     Harris-Foulkes estimate   =  -36129.87882368 Ry
     estimated scf accuracy    <       0.00009719 Ry

     iteration # 41     ecut=    70.00 Ry     beta= 0.40
     Davidson diagonalization with overlap
     ethr =  6.82E-09,  avg # of iterations =  1.0

     total cpu time spent up to now is     4520.0 secs

     total energy              =  -36129.87881768 Ry
     Harris-Foulkes estimate   =  -36129.87882358 Ry
     estimated scf accuracy    <       0.00008221 Ry

     iteration # 42     ecut=    70.00 Ry     beta= 0.40
     Davidson diagonalization with overlap
     ethr =  5.77E-09,  avg # of iterations =  1.0

     total cpu time spent up to now is     4611.6 secs

     total energy              =  -36129.87881859 Ry
     Harris-Foulkes estimate   =  -36129.87882282 Ry
     estimated scf accuracy    <       0.00005010 Ry

     iteration # 43     ecut=    70.00 Ry     beta= 0.40
     Davidson diagonalization with overlap
     ethr =  3.52E-09,  avg # of iterations =  1.0

     total cpu time spent up to now is     4703.7 secs

     total energy              =  -36129.87881760 Ry
     Harris-Foulkes estimate   =  -36129.87882375 Ry
     estimated scf accuracy    <       0.00008427 Ry

     iteration # 44     ecut=    70.00 Ry     beta= 0.40
     Davidson diagonalization with overlap
     ethr =  3.52E-09,  avg # of iterations =  1.0

     total cpu time spent up to now is     4795.3 secs

     total energy              =  -36129.87881944 Ry
     Harris-Foulkes estimate   =  -36129.87882272 Ry
     estimated scf accuracy    <       0.00004428 Ry

     iteration # 45     ecut=    70.00 Ry     beta= 0.40
     Davidson diagonalization with overlap
     ethr =  3.11E-09,  avg # of iterations =  1.0

     total cpu time spent up to now is     4886.9 secs

     total energy              =  -36129.87882028 Ry
     Harris-Foulkes estimate   =  -36129.87882213 Ry
     estimated scf accuracy    <       0.00002322 Ry

     iteration # 46     ecut=    70.00 Ry     beta= 0.40
     Davidson diagonalization with overlap
     ethr =  1.63E-09,  avg # of iterations =  1.0

     total cpu time spent up to now is     4978.2 secs

     total energy              =  -36129.87882092 Ry
     Harris-Foulkes estimate   =  -36129.87882183 Ry
     estimated scf accuracy    <       0.00001126 Ry

     iteration # 47     ecut=    70.00 Ry     beta= 0.40
     Davidson diagonalization with overlap
     ethr =  7.90E-10,  avg # of iterations =  1.0

     total cpu time spent up to now is     5069.7 secs

     total energy              =  -36129.87882103 Ry
     Harris-Foulkes estimate   =  -36129.87882177 Ry
     estimated scf accuracy    <       0.00000829 Ry

     iteration # 48     ecut=    70.00 Ry     beta= 0.40
     Davidson diagonalization with overlap
     ethr =  5.82E-10,  avg # of iterations =  1.0

     total cpu time spent up to now is     5161.0 secs

     total energy              =  -36129.87882061 Ry
     Harris-Foulkes estimate   =  -36129.87882230 Ry
     estimated scf accuracy    <       0.00002673 Ry

     iteration # 49     ecut=    70.00 Ry     beta= 0.40
     Davidson diagonalization with overlap
     ethr =  5.82E-10,  avg # of iterations =  1.0

     total cpu time spent up to now is     5253.1 secs

     total energy              =  -36129.87882117 Ry
     Harris-Foulkes estimate   =  -36129.87882176 Ry
     estimated scf accuracy    <       0.00000743 Ry

     iteration # 50     ecut=    70.00 Ry     beta= 0.40
     Davidson diagonalization with overlap
     ethr =  5.22E-10,  avg # of iterations =  1.0

     total cpu time spent up to now is     5344.6 secs

     total energy              =  -36129.87882129 Ry
     Harris-Foulkes estimate   =  -36129.87882180 Ry
     estimated scf accuracy    <       0.00000877 Ry

     iteration # 51     ecut=    70.00 Ry     beta= 0.40
     Davidson diagonalization with overlap
     ethr =  5.22E-10,  avg # of iterations =  1.0

     total cpu time spent up to now is     5435.8 secs

     total energy              =  -36129.87882145 Ry
     Harris-Foulkes estimate   =  -36129.87882170 Ry
     estimated scf accuracy    <       0.00000360 Ry

     iteration # 52     ecut=    70.00 Ry     beta= 0.40
     Davidson diagonalization with overlap
     ethr =  2.53E-10,  avg # of iterations =  1.0

     total cpu time spent up to now is     5527.1 secs

     total energy              =  -36129.87882152 Ry
     Harris-Foulkes estimate   =  -36129.87882167 Ry
     estimated scf accuracy    <       0.00000170 Ry

     iteration # 53     ecut=    70.00 Ry     beta= 0.40
     Davidson diagonalization with overlap
     ethr =  1.19E-10,  avg # of iterations =  1.0

     total cpu time spent up to now is     5618.4 secs

     total energy              =  -36129.87882145 Ry
     Harris-Foulkes estimate   =  -36129.87882175 Ry
     estimated scf accuracy    <       0.00000404 Ry

     iteration # 54     ecut=    70.00 Ry     beta= 0.40
     Davidson diagonalization with overlap
     ethr =  1.19E-10,  avg # of iterations =  1.0

     total cpu time spent up to now is     5709.7 secs

     total energy              =  -36129.87882149 Ry
     Harris-Foulkes estimate   =  -36129.87882175 Ry
     estimated scf accuracy    <       0.00000384 Ry

     iteration # 55     ecut=    70.00 Ry     beta= 0.40
     Davidson diagonalization with overlap
     ethr =  1.19E-10,  avg # of iterations =  1.0

     total cpu time spent up to now is     5801.0 secs

     total energy              =  -36129.87882158 Ry
     Harris-Foulkes estimate   =  -36129.87882167 Ry
     estimated scf accuracy    <       0.00000103 Ry

     iteration # 56     ecut=    70.00 Ry     beta= 0.40
     Davidson diagonalization with overlap
     ethr =  7.26E-11,  avg # of iterations =  1.0

     total cpu time spent up to now is     5892.3 secs

     End of self-consistent calculation

          k = 0.2500 0.2500 0.2500 (115535 PWs)   bands (ev):

   -99.1704 -99.1567 -99.1534 -99.1224 -99.1100 -99.0549 -99.0513 -99.0388
   -99.0382 -99.0215 -99.0178 -99.0168 -99.0131 -99.0110 -99.0104 -99.0099
   -98.9966 -98.9789 -98.9636 -98.9566 -98.9521 -98.9360 -98.9239 -98.9188
   -98.9159 -98.9070 -98.8800 -98.8541 -98.8482 -98.8437 -98.8426 -98.8404
   -98.8308 -98.8270 -98.8241 -98.8228 -98.8149 -98.7707 -98.7358 -98.7234
   -98.7193 -98.6956 -98.6690 -98.5990 -98.5744 -56.5842 -56.5741 -56.5516
   -56.5056 -56.5055 -56.4913 -56.4828 -56.4813 -56.4751 -56.4737 -56.4677
   -56.4540 -56.4435 -56.4379 -56.4352 -56.4340 -56.4274 -56.4202 -56.4081
   -56.4063 -56.4058 -56.4035 -56.3962 -56.3948 -56.3925 -56.3923 -56.3917
   -56.3874 -56.3834 -56.3764 -56.3752 -56.3708 -56.3696 -56.3611 -56.3604
   -56.3592 -56.3579 -56.3565 -56.3483 -56.3482 -56.3461 -56.3370 -56.3355
   -56.3310 -56.3304 -56.3207 -56.3201 -56.3151 -56.3132 -56.3105 -56.3095
   -56.3073 -56.3063 -56.3060 -56.3037 -56.3024 -56.2983 -56.2951 -56.2949
   -56.2905 -56.2888 -56.2863 -56.2830 -56.2829 -56.2787 -56.2783 -56.2725
   -56.2705 -56.2672 -56.2625 -56.2623 -56.2592 -56.2588 -56.2570 -56.2552
   -56.2356 -56.2347 -56.2344 -56.2285 -56.2250 -56.2246 -56.2211 -56.2171
   -56.2152 -56.2094 -56.2093 -56.1962 -56.1916 -56.1862 -56.1802 -56.1751
   -56.1708 -56.1679 -56.1673 -56.1673 -56.1671 -56.1668 -56.1649 -56.1619
   -56.1591 -56.1550 -56.1437 -56.1395 -56.1392 -56.1351 -56.1345 -56.1308
   -56.1305 -56.1298 -56.1226 -56.1152 -56.1135 -56.1030 -56.1019 -56.0866
   -56.0845 -56.0815 -56.0801 -56.0602 -56.0586 -56.0486 -56.0468 -56.0467
   -56.0452 -56.0331 -56.0235 -56.0183 -55.9830 -55.9760 -55.9587 -55.9392
   -55.9379 -55.9092 -55.9030 -55.8961 -34.9079 -34.8264 -34.8112 -34.7767
   -34.7574 -34.7381 -34.7167 -34.7137 -34.7030 -34.6656 -34.6305 -34.5973
   -34.5960 -34.5806 -34.5744 -34.5703 -34.5614 -34.5576 -34.5513 -34.5435
   -34.5394 -34.5349 -34.5192 -34.5125 -34.5093 -34.5004 -34.4937 -34.4790
   -34.4562 -34.4536 -34.4346 -34.4243 -34.4193 -34.4093 -34.4089 -34.4022
   -34.3891 -34.3830 -34.3657 -34.3485 -34.3274 -34.2813 -34.2206 -34.2044
   -34.1658 -13.0562 -13.0035 -12.9861 -12.9692 -12.9659 -12.9598 -12.9485
   -12.9437 -12.9386 -12.9281 -12.9228 -12.9074 -12.9055 -12.8989 -12.8919
   -12.8888 -12.8817 -12.8786 -12.8716 -12.8658 -12.8617 -12.8558 -12.8528
   -12.8484 -12.8433 -12.8391 -12.8331 -12.8279 -12.8237 -12.8202 -12.8143
   -12.8093 -12.8054 -12.7994 -12.7930 -12.7877 -12.7799 -12.7762 -12.7728
   -12.7666 -12.7609 -12.7573 -12.7466 -12.7434 -12.7393 -12.7369 -12.7332
   -12.7290 -12.7136 -12.7077 -12.6993 -12.6906 -12.6835 -12.6777 -12.6720
   -12.6636 -12.6599 -12.6566 -12.6497 -12.6427 -12.6392 -12.6300 -12.6259
   -12.6162 -12.6122 -12.6066 -12.6025 -12.5925 -12.5900 -12.5857 -12.5764
   -12.5705 -12.5654 -12.5614 -12.5583 -12.5507 -12.5463 -12.5400 -12.5352
   -12.5280 -12.5245 -12.5185 -12.5100 -12.5062 -12.5037 -12.4950 -12.4932
   -12.4877 -12.4829 -12.4775 -12.4740 -12.4670 -12.4598 -12.4580 -12.4519
   -12.4456 -12.4425 -12.4338 -12.4311 -12.4209 -12.4189 -12.4101 -12.4063
   -12.4009 -12.3941 -12.3873 -12.3823 -12.3761 -12.3704 -12.3655 -12.3588
   -12.3523 -12.3306 -12.3282 -12.3227 -12.3101 -12.3061 -12.3003 -12.2920
   -12.2871 -12.2734 -12.2662 -12.2579 -12.2432 -12.2210 -12.2167 -12.2090
   -12.2054 -12.1711 -12.1456 -12.1393 -12.1111 -12.0618 -12.0288 -11.9344
     6.3148   6.6640   6.7966   7.0624   7.3169   7.4442   7.6586   7.7812
     7.8789   8.0023   8.1455   8.1976   8.3139   8.4560   8.6216   8.6834
     8.7195   8.8119   8.9474   9.0308   9.0933   9.1133   9.2085   9.2838
     9.3402   9.3897   9.4622   9.4862   9.5179   9.5669   9.6269   9.6630
     9.7197   9.7466   9.7577   9.8011   9.8296   9.8538   9.8730   9.8796
     9.8927   9.9037   9.9177   9.9298   9.9499   9.9630   9.9692   9.9825
    10.0008  10.0065  10.0157  10.0211  10.0345  10.0441  10.0552  10.0690
    10.0711  10.0896  10.0945  10.1087  10.1138  10.1239  10.1345  10.1413
    10.1540  10.1608  10.1693  10.1734  10.1782  10.1893  10.1965  10.2100
    10.2166  10.2246  10.2355  10.2392  10.2468  10.2571  10.2630  10.2716
    10.2799  10.2896  10.3015  10.3059  10.3116  10.3178  10.3258  10.3342
    10.3409  10.3556  10.3585  10.3668  10.3710  10.3783  10.3911  10.3953
    10.4025  10.4122  10.4151  10.4287  10.4314  10.4400  10.4490  10.4542
    10.4604  10.4645  10.4694  10.4770  10.4849  10.4895  10.4992  10.5040
    10.5120  10.5224  10.5297  10.5319  10.5376  10.5455  10.5506  10.5605
    10.5704  10.5742  10.5801  10.5877  10.5950  10.6026  10.6132  10.6184
    10.6226  10.6298  10.6372  10.6426  10.6490  10.6567  10.6654  10.6760
    10.6827  10.6929  10.6988  10.7071  10.7124  10.7179  10.7211  10.7291
    10.7323  10.7439  10.7475  10.7507  10.7634  10.7682  10.7758  10.7848
    10.7880  10.7928  10.7974  10.8042  10.8107  10.8160  10.8267  10.8326
    10.8394  10.8444  10.8567  10.8638  10.8669  10.8730  10.8780  10.8902
    10.8982  10.9069  10.9122  10.9185  10.9258  10.9350  10.9447  10.9556
    10.9660  10.9680  10.9736  10.9836  10.9914  10.9959  10.9989  11.0090
    11.0184  11.0282  11.0348  11.0447  11.0530  11.0671  11.0726  11.0822
    11.0879  11.1014  11.1091  11.1175  11.1243  11.1311  11.1379  11.1514
    11.1598  11.1665  11.1774  11.1876  11.1975  11.2038  11.2105  11.2262
    11.2355  11.2495  11.2559  11.2611  11.2700  11.2879  11.2944  11.3035
    11.3146  11.3245  11.3326  11.3407  11.3448  11.3507  11.3597  11.3668
    11.3858  11.3884  11.3990  11.4011  11.4252  11.4330  11.4364  11.4492
    11.4550  11.4646  11.4795  11.4855  11.4972  11.5036  11.5127  11.5223
    11.5363  11.5461  11.5542  11.5633  11.5817  11.5897  11.6054  11.6123
    11.6276  11.6365  11.6464  11.6675  11.6741  11.6944  11.7174  11.7326
    11.7589  11.7638  11.7748  11.7817  11.7968  11.8198  11.8402  11.8666
    11.8827  11.9167  11.9352  11.9742  12.0103  12.0561  12.0618  12.0840
    12.1103  12.1619  12.1914  12.2351  12.2707  12.2955  12.3103  12.3893
    12.4149  12.4337  12.4680  12.5069  12.5375  12.5633  12.6122  12.6639
    12.7033  12.7132  12.7470  12.7811  12.8113  12.8494  12.8749  12.9032
    12.9227  12.9437  12.9816  13.0111  13.0436  13.0704  13.0783  13.1052
    13.1336  13.1612  13.2081  13.2314  13.2463  13.2831  13.3273  13.3366
    13.3554  13.3782  13.3947  13.4065  13.4400  13.4770  13.4979  13.5209
    13.5420  13.5602  13.5702  13.5996  13.6172  13.6390  13.6526  13.6731
    13.6913  13.7091  13.7382  13.7536  13.7866  13.8104  13.8351  13.8465
    13.8608  13.9038  13.9171  13.9474  13.9578  13.9720  13.9972  14.0210
    14.0484  14.0589  14.0878  14.0991  14.1135  14.1394  14.1545  14.1694
    14.1978  14.2190  14.2345  14.2498  14.2746  14.2940  14.2997  14.3302
    14.3459  14.3647  14.3779  14.3964  14.4447  14.4549  14.4688  14.5065
    14.5208  14.5360  14.5790  14.5820  14.6054  14.6435  14.6518  14.6727
    14.6910  14.7049  14.7348  14.7605  14.7967  14.8256  14.8375  14.8683
    14.8912  14.9390  14.9780  14.9849  15.0170  15.0409  15.0618  15.0971
    15.1161  15.1390  15.2055  15.2486  15.2728  15.3023  15.3164  15.3526
    15.3653  15.4051  15.4397  15.4630  15.5222  15.5654  15.5792  15.6218
    15.6524  15.6829  15.7146  15.7327  15.7729  15.7942  15.8444  15.8941
    15.9173  15.9529  15.9747  15.9877  16.0154  16.0461  16.0857  16.1012
    16.1337  16.1669  16.1890  16.2256  16.2436  16.2749  16.3269  16.3753
    16.3850  16.4258  16.4704  16.4807  16.5173  16.5358  16.5699  16.6055
    16.6144  16.6417  16.6868  16.7242  16.7345  16.7727  16.7905  16.8387
    16.8556  16.8767  16.9215  16.9473  16.9693  17.0065  17.0137  17.0265
    17.0798  17.0944  17.1141  17.1222  17.1621  17.1810  17.2244  17.2425
    17.2543  17.3088  17.3298  17.3661  17.3823  17.4043  17.4301  17.4739
    17.5056  17.5346  17.5531  17.5861  17.6119  17.6478  17.6926  17.7025
    17.7452  17.7564  17.7779  17.7881  17.8159  17.8473  17.8864  17.9083
    17.9437  17.9823  18.0044  18.0323  18.0565  18.0642  18.1050  18.1414
    18.1799  18.2415  18.2550  18.2649  18.2843  18.3265  18.3740  18.3862
    18.4266  18.4665  18.4813  18.5172  18.5467  18.5668  18.6061  18.6405
    18.6909  18.7217  18.7710  18.7855  18.8215  18.8710  18.9020  18.9435
    18.9973  19.0729  19.0972  19.1491  19.1704  19.2535  19.2893  19.3255
    19.3597  19.4420  19.4749  19.5401  19.5879  19.6346  19.6639  19.6721
    19.7074  19.7573  19.7995  19.8289  19.9315  19.9662  20.0028  20.0557
    20.0976  20.1631  20.1819  20.2210  20.2669  20.3331  20.3795  20.4290
    20.4578  20.4826  20.5482  20.5932  20.6041  20.6602  20.7007  20.7500
    20.7831  20.8302  20.8692  20.9105  20.9369  20.9663  21.0163  21.0517
    21.0880  21.1162  21.1956  21.2219  21.2305  21.2981  21.3134  21.3596
    21.4014  21.4284  21.4700  21.5108  21.5570  21.5963  21.6377  21.6687
    21.7421  21.7864  21.8367  21.8414  21.9063  21.9579  21.9846  22.0337
    22.0403  22.1254  22.1460  22.1772  22.2064  22.2563  22.2974  22.3037
    22.3387  22.3644  22.4233  22.4394  22.4695  22.5174  22.5618  22.5933
    22.6647  22.6892  22.7225  22.7751  22.8148  22.8518  22.8976  22.9513
    22.9649  23.0075  23.0299  23.0612  23.1131  23.1204  23.1989  23.2160
    23.2696  23.3069  23.3291  23.3733  23.3929  23.4531  23.4758  23.5079
    23.5373  23.5652  23.6007  23.6616  23.6921  23.7374  23.7497  23.7841
    23.8073  23.8655  23.8764  23.9314  23.9571  24.0220  24.0435  24.0937
    24.1171  24.1705  24.1936  24.2454  24.2880  24.3195  24.3481  24.3798
    24.4236  24.4658  24.4948  24.5635  24.5785  24.6353  24.6546  24.7202
    24.7454  24.7564  24.7760  24.8304  24.8579  24.9019  24.9615  24.9950
    25.0115  25.0485

     occupation numbers 
     1.0000   1.0000   1.0000   1.0000   1.0000   1.0000   1.0000   1.0000
     1.0000   1.0000   1.0000   1.0000   1.0000   1.0000   1.0000   1.0000
     1.0000   1.0000   1.0000   1.0000   1.0000   1.0000   1.0000   1.0000
     1.0000   1.0000   1.0000   1.0000   1.0000   1.0000   1.0000   1.0000
     1.0000   1.0000   1.0000   1.0000   1.0000   1.0000   1.0000   1.0000
     1.0000   1.0000   1.0000   1.0000   1.0000   1.0000   1.0000   1.0000
     1.0000   1.0000   1.0000   1.0000   1.0000   1.0000   1.0000   1.0000
     1.0000   1.0000   1.0000   1.0000   1.0000   1.0000   1.0000   1.0000
     1.0000   1.0000   1.0000   1.0000   1.0000   1.0000   1.0000   1.0000
     1.0000   1.0000   1.0000   1.0000   1.0000   1.0000   1.0000   1.0000
     1.0000   1.0000   1.0000   1.0000   1.0000   1.0000   1.0000   1.0000
     1.0000   1.0000   1.0000   1.0000   1.0000   1.0000   1.0000   1.0000
     1.0000   1.0000   1.0000   1.0000   1.0000   1.0000   1.0000   1.0000
     1.0000   1.0000   1.0000   1.0000   1.0000   1.0000   1.0000   1.0000
     1.0000   1.0000   1.0000   1.0000   1.0000   1.0000   1.0000   1.0000
     1.0000   1.0000   1.0000   1.0000   1.0000   1.0000   1.0000   1.0000
     1.0000   1.0000   1.0000   1.0000   1.0000   1.0000   1.0000   1.0000
     1.0000   1.0000   1.0000   1.0000   1.0000   1.0000   1.0000   1.0000
     1.0000   1.0000   1.0000   1.0000   1.0000   1.0000   1.0000   1.0000
     1.0000   1.0000   1.0000   1.0000   1.0000   1.0000   1.0000   1.0000
     1.0000   1.0000   1.0000   1.0000   1.0000   1.0000   1.0000   1.0000
     1.0000   1.0000   1.0000   1.0000   1.0000   1.0000   1.0000   1.0000
     1.0000   1.0000   1.0000   1.0000   1.0000   1.0000   1.0000   1.0000
     1.0000   1.0000   1.0000   1.0000   1.0000   1.0000   1.0000   1.0000
     1.0000   1.0000   1.0000   1.0000   1.0000   1.0000   1.0000   1.0000
     1.0000   1.0000   1.0000   1.0000   1.0000   1.0000   1.0000   1.0000
     1.0000   1.0000   1.0000   1.0000   1.0000   1.0000   1.0000   1.0000
     1.0000   1.0000   1.0000   1.0000   1.0000   1.0000   1.0000   1.0000
     1.0000   1.0000   1.0000   1.0000   1.0000   1.0000   1.0000   1.0000
     1.0000   1.0000   1.0000   1.0000   1.0000   1.0000   1.0000   1.0000
     1.0000   1.0000   1.0000   1.0000   1.0000   1.0000   1.0000   1.0000
     1.0000   1.0000   1.0000   1.0000   1.0000   1.0000   1.0000   1.0000
     1.0000   1.0000   1.0000   1.0000   1.0000   1.0000   1.0000   1.0000
     1.0000   1.0000   1.0000   1.0000   1.0000   1.0000   1.0000   1.0000
     1.0000   1.0000   1.0000   1.0000   1.0000   1.0000   1.0000   1.0000
     1.0000   1.0000   1.0000   1.0000   1.0000   1.0000   1.0000   1.0000
     1.0000   1.0000   1.0000   1.0000   1.0000   1.0000   1.0000   1.0000
     1.0000   1.0000   1.0000   1.0000   1.0000   1.0000   1.0000   1.0000
     1.0000   1.0000   1.0000   1.0000   1.0000   1.0000   1.0000   1.0000
     1.0000   1.0000   1.0000   1.0000   1.0000   1.0000   1.0000   1.0000
     1.0000   1.0000   1.0000   1.0000   1.0000   1.0000   1.0000   1.0000
     1.0000   1.0000   1.0000   1.0000   1.0000   1.0000   1.0000   1.0000
     1.0000   1.0000   1.0000   1.0000   1.0000   1.0000   1.0000   1.0000
     1.0000   1.0000   1.0000   1.0000   1.0000   1.0000   1.0000   1.0000
     1.0000   1.0000   1.0000   1.0000   1.0000   1.0000   1.0000   1.0000
     1.0000   1.0000   1.0000   1.0000   1.0000   1.0000   1.0000   1.0000
     1.0000   1.0000   1.0000   1.0000   1.0000   1.0000   1.0000   1.0000
     1.0000   1.0000   1.0000   1.0000   1.0000   1.0000   1.0000   1.0000
     1.0000   1.0000   1.0000   1.0000   1.0000   1.0000   1.0000   1.0000
     1.0000   1.0000   1.0000   1.0000   1.0000   1.0000   1.0000   1.0000
     1.0000   1.0000   1.0000   1.0000   1.0000   1.0000   1.0000   1.0000
     1.0000   1.0000   1.0000   1.0000   1.0000   1.0000   1.0000   1.0000
     1.0000   1.0000   1.0000   1.0000   1.0000   1.0000   1.0000   1.0000
     1.0000   1.0000   1.0000   1.0000   1.0000   1.0000   1.0000   1.0000
     1.0000   1.0000   1.0000   1.0000   1.0000   1.0000   1.0000   1.0000
     1.0000   1.0000   1.0000   1.0000   1.0000   1.0000   1.0000   1.0000
     1.0000   1.0000   1.0000   1.0000   1.0000   1.0000   1.0000   1.0000
     1.0000   1.0000   1.0000   1.0000   1.0000   1.0000   1.0000   1.0000
     1.0000   1.0000   1.0000   1.0000   1.0000   1.0000   1.0000   1.0000
     1.0000   1.0000   1.0000   1.0000   1.0000   1.0000   1.0000   1.0000
     1.0000   1.0000   1.0000   1.0000   1.0000   1.0000   1.0000   1.0000
     1.0000   1.0000   1.0000   1.0000   1.0000   1.0000   1.0000   1.0000
     1.0000   1.0000   1.0000   1.0000   1.0000   1.0000   1.0000   1.0000
     1.0000   1.0000   1.0000   1.0000   1.0000   1.0000   1.0000   1.0000
     1.0000   1.0000   1.0000   1.0000   1.0000   1.0000   1.0000   1.0000
     1.0000   1.0000   1.0000   1.0000   1.0000   1.0000   1.0000   1.0000
     1.0000   1.0000   1.0000   1.0000   1.0000   1.0000   1.0000   1.0000
     1.0000   1.0000   1.0000   1.0000   1.0000   1.0000   1.0000   1.0000
     1.0000   1.0000   1.0000   1.0000   1.0000   1.0000   1.0000   1.0000
     1.0000   1.0000   1.0000   1.0000   1.0000   1.0000   1.0000   1.0000
     1.0000   1.0000   1.0000   1.0000   1.0000   1.0000   1.0000   1.0000
     1.0000   1.0000   1.0000   1.0000   1.0000   1.0000   1.0000   1.0000
     1.0000   1.0000   1.0000   1.0000   1.0000   1.0000   1.0000   1.0000
     1.0000   1.0000   1.0000   1.0000   1.0000   1.0000   1.0000   1.0000
     1.0000   1.0000   1.0000   1.0000   1.0000   1.0000   1.0000   1.0000
     1.0000   1.0000   1.0000   1.0000   1.0000   1.0000   1.0000   1.0000
     1.0000   1.0000   1.0000   1.0000   1.0000   1.0000   1.0000   1.0000
     1.0000   1.0000   1.0000   1.0000   1.0000   1.0000   1.0000   1.0000
     1.0000   1.0000   1.0000   1.0000   1.0000   1.0000   1.0000   1.0000
     1.0000   1.0000   1.0000   1.0000   1.0000   1.0000   1.0000   1.0000
     1.0000   1.0000   1.0000   1.0000   1.0000   1.0000   1.0000   1.0000
     1.0000   1.0000   1.0000   1.0000   1.0000   1.0000   1.0000   1.0000
     1.0000   1.0000   1.0000   1.0000   1.0000   1.0000   1.0000   1.0000
     0.9999   0.9999   0.9999   0.9999   0.9998   0.9998   0.9996   0.9996
     0.9995   0.9994   0.9993   0.9993   0.9990   0.9986   0.9983   0.9979
     0.9975   0.9970   0.9967   0.9957   0.9950   0.9939   0.9931   0.9916
     0.9901   0.9884   0.9849   0.9826   0.9767   0.9711   0.9640   0.9602
     0.9548   0.9344   0.9265   0.9052   0.8966   0.8839   0.8579   0.8291
     0.7905   0.7742   0.7244   0.7032   0.6748   0.6206   0.5875   0.5538
     0.4888   0.4404   0.4058   0.3724   0.3209   0.2832   0.2728   0.2209
     0.1970   0.1711   0.1545   0.1336   0.0901   0.0827   0.0735   0.0531
     0.0469   0.0410   0.0280   0.0273   0.0221   0.0157   0.0145   0.0120
     0.0102   0.0090   0.0068   0.0054   0.0039   0.0030   0.0027   0.0020
     0.0016   0.0011   0.0007   0.0007   0.0005   0.0004   0.0003   0.0002
     0.0002   0.0002   0.0001   0.0001   0.0000   0.0000   0.0000   0.0000
     0.0000   0.0000   0.0000   0.0000   0.0000   0.0000   0.0000   0.0000
     0.0000   0.0000   0.0000   0.0000   0.0000   0.0000   0.0000   0.0000
     0.0000   0.0000   0.0000   0.0000   0.0000   0.0000   0.0000   0.0000
     0.0000   0.0000   0.0000   0.0000   0.0000   0.0000   0.0000   0.0000
     0.0000   0.0000   0.0000   0.0000   0.0000   0.0000   0.0000   0.0000
     0.0000   0.0000   0.0000   0.0000   0.0000   0.0000   0.0000   0.0000
     0.0000   0.0000   0.0000   0.0000   0.0000   0.0000   0.0000   0.0000
     0.0000   0.0000   0.0000   0.0000   0.0000   0.0000   0.0000   0.0000
     0.0000   0.0000   0.0000   0.0000   0.0000   0.0000   0.0000   0.0000
     0.0000   0.0000   0.0000   0.0000   0.0000   0.0000   0.0000   0.0000
     0.0000   0.0000   0.0000   0.0000   0.0000   0.0000   0.0000   0.0000
     0.0000   0.0000   0.0000   0.0000   0.0000   0.0000   0.0000   0.0000
     0.0000   0.0000   0.0000   0.0000   0.0000   0.0000   0.0000   0.0000
     0.0000   0.0000   0.0000   0.0000   0.0000   0.0000   0.0000   0.0000
     0.0000   0.0000   0.0000   0.0000   0.0000   0.0000   0.0000   0.0000
     0.0000   0.0000   0.0000   0.0000   0.0000   0.0000   0.0000   0.0000
     0.0000   0.0000   0.0000   0.0000   0.0000   0.0000   0.0000   0.0000
     0.0000   0.0000   0.0000   0.0000   0.0000   0.0000   0.0000   0.0000
     0.0000   0.0000   0.0000   0.0000   0.0000   0.0000   0.0000   0.0000
     0.0000   0.0000   0.0000   0.0000   0.0000   0.0000   0.0000   0.0000
     0.0000   0.0000   0.0000   0.0000   0.0000   0.0000   0.0000   0.0000
     0.0000   0.0000   0.0000   0.0000   0.0000   0.0000   0.0000   0.0000
     0.0000   0.0000   0.0000   0.0000   0.0000   0.0000   0.0000   0.0000
     0.0000   0.0000   0.0000   0.0000   0.0000   0.0000   0.0000   0.0000
     0.0000   0.0000   0.0000   0.0000   0.0000   0.0000   0.0000   0.0000
     0.0000   0.0000   0.0000   0.0000   0.0000   0.0000   0.0000   0.0000
     0.0000   0.0000   0.0000   0.0000   0.0000   0.0000   0.0000   0.0000
     0.0000   0.0000   0.0000   0.0000   0.0000   0.0000   0.0000   0.0000
     0.0000   0.0000   0.0000   0.0000   0.0000   0.0000   0.0000   0.0000
     0.0000   0.0000   0.0000   0.0000   0.0000   0.0000   0.0000   0.0000
     0.0000   0.0000   0.0000   0.0000   0.0000   0.0000   0.0000   0.0000
     0.0000   0.0000   0.0000   0.0000   0.0000   0.0000   0.0000   0.0000
     0.0000   0.0000   0.0000   0.0000   0.0000   0.0000   0.0000   0.0000
     0.0000   0.0000   0.0000   0.0000   0.0000   0.0000   0.0000   0.0000
     0.0000   0.0000

          k = 0.2500 0.2500-0.2500 (115535 PWs)   bands (ev):

   -99.1704 -99.1567 -99.1534 -99.1224 -99.1100 -99.0549 -99.0513 -99.0388
   -99.0382 -99.0215 -99.0178 -99.0168 -99.0131 -99.0110 -99.0104 -99.0099
   -98.9966 -98.9789 -98.9636 -98.9566 -98.9521 -98.9360 -98.9239 -98.9188
   -98.9159 -98.9070 -98.8800 -98.8541 -98.8482 -98.8437 -98.8426 -98.8404
   -98.8308 -98.8270 -98.8241 -98.8228 -98.8149 -98.7707 -98.7358 -98.7234
   -98.7193 -98.6956 -98.6690 -98.5990 -98.5744 -56.5842 -56.5741 -56.5516
   -56.5056 -56.5055 -56.4913 -56.4828 -56.4813 -56.4751 -56.4737 -56.4676
   -56.4540 -56.4435 -56.4379 -56.4352 -56.4340 -56.4274 -56.4202 -56.4081
   -56.4063 -56.4058 -56.4035 -56.3962 -56.3948 -56.3925 -56.3923 -56.3917
   -56.3874 -56.3834 -56.3764 -56.3752 -56.3708 -56.3696 -56.3611 -56.3604
   -56.3592 -56.3579 -56.3565 -56.3483 -56.3482 -56.3461 -56.3370 -56.3355
   -56.3310 -56.3304 -56.3207 -56.3201 -56.3151 -56.3132 -56.3105 -56.3095
   -56.3073 -56.3063 -56.3060 -56.3037 -56.3024 -56.2983 -56.2951 -56.2949
   -56.2905 -56.2888 -56.2863 -56.2830 -56.2829 -56.2787 -56.2783 -56.2725
   -56.2705 -56.2672 -56.2625 -56.2623 -56.2592 -56.2588 -56.2570 -56.2552
   -56.2356 -56.2347 -56.2344 -56.2285 -56.2250 -56.2246 -56.2211 -56.2171
   -56.2152 -56.2094 -56.2092 -56.1962 -56.1916 -56.1862 -56.1802 -56.1751
   -56.1708 -56.1679 -56.1673 -56.1672 -56.1671 -56.1668 -56.1649 -56.1619
   -56.1591 -56.1551 -56.1436 -56.1395 -56.1392 -56.1351 -56.1345 -56.1308
   -56.1305 -56.1298 -56.1226 -56.1152 -56.1135 -56.1030 -56.1019 -56.0866
   -56.0845 -56.0815 -56.0801 -56.0602 -56.0586 -56.0486 -56.0468 -56.0467
   -56.0452 -56.0330 -56.0235 -56.0183 -55.9830 -55.9760 -55.9587 -55.9392
   -55.9379 -55.9092 -55.9030 -55.8961 -34.9079 -34.8264 -34.8112 -34.7767
   -34.7574 -34.7381 -34.7167 -34.7137 -34.7030 -34.6656 -34.6305 -34.5973
   -34.5959 -34.5806 -34.5744 -34.5704 -34.5615 -34.5574 -34.5515 -34.5435
   -34.5394 -34.5348 -34.5191 -34.5125 -34.5093 -34.5004 -34.4937 -34.4790
   -34.4562 -34.4536 -34.4346 -34.4243 -34.4193 -34.4093 -34.4089 -34.4022
   -34.3891 -34.3830 -34.3657 -34.3485 -34.3274 -34.2813 -34.2206 -34.2044
   -34.1658 -13.0562 -13.0001 -12.9858 -12.9695 -12.9668 -12.9593 -12.9523
   -12.9458 -12.9397 -12.9276 -12.9217 -12.9072 -12.9030 -12.9007 -12.8927
   -12.8896 -12.8829 -12.8805 -12.8719 -12.8639 -12.8601 -12.8584 -12.8516
   -12.8489 -12.8439 -12.8362 -12.8305 -12.8268 -12.8228 -12.8203 -12.8130
   -12.8084 -12.8057 -12.7989 -12.7964 -12.7842 -12.7818 -12.7764 -12.7722
   -12.7642 -12.7617 -12.7582 -12.7492 -12.7452 -12.7402 -12.7344 -12.7320
   -12.7299 -12.7123 -12.7064 -12.6995 -12.6927 -12.6875 -12.6758 -12.6714
   -12.6662 -12.6615 -12.6537 -12.6465 -12.6417 -12.6344 -12.6289 -12.6261
   -12.6167 -12.6115 -12.6074 -12.6014 -12.5970 -12.5896 -12.5864 -12.5787
   -12.5742 -12.5660 -12.5639 -12.5564 -12.5498 -12.5469 -12.5392 -12.5360
   -12.5308 -12.5257 -12.5182 -12.5106 -12.5039 -12.5002 -12.4972 -12.4903
   -12.4866 -12.4814 -12.4799 -12.4724 -12.4683 -12.4609 -12.4568 -12.4512
   -12.4493 -12.4404 -12.4343 -12.4315 -12.4213 -12.4158 -12.4128 -12.4071
   -12.3990 -12.3944 -12.3864 -12.3816 -12.3739 -12.3677 -12.3649 -12.3590
   -12.3536 -12.3333 -12.3307 -12.3235 -12.3099 -12.3061 -12.3018 -12.2934
   -12.2807 -12.2718 -12.2655 -12.2568 -12.2492 -12.2212 -12.2159 -12.2087
   -12.2056 -12.1709 -12.1454 -12.1394 -12.1111 -12.0618 -12.0288 -11.9344
     6.3272   6.5925   6.8627   7.1323   7.2706   7.3881   7.6723   7.7444
     7.8699   8.0299   8.1474   8.2759   8.3403   8.4220   8.5411   8.6697
     8.7875   8.8550   8.9496   9.0158   9.0404   9.0842   9.1842   9.2867
     9.3300   9.4182   9.4892   9.5090   9.5469   9.5806   9.6139   9.6554
     9.6841   9.7388   9.7774   9.7898   9.8248   9.8436   9.8691   9.8796
     9.8982   9.9079   9.9211   9.9279   9.9423   9.9604   9.9668   9.9798
     9.9939  10.0061  10.0224  10.0279  10.0410  10.0459  10.0597  10.0675
    10.0784  10.0884  10.0966  10.1052  10.1149  10.1212  10.1308  10.1394
    10.1479  10.1604  10.1649  10.1751  10.1896  10.1954  10.2029  10.2104
    10.2184  10.2298  10.2404  10.2457  10.2483  10.2598  10.2685  10.2752
    10.2846  10.2915  10.2974  10.3069  10.3139  10.3181  10.3255  10.3305
    10.3439  10.3495  10.3560  10.3669  10.3743  10.3828  10.3880  10.3987
    10.4040  10.4081  10.4186  10.4294  10.4368  10.4412  10.4462  10.4523
    10.4588  10.4679  10.4707  10.4779  10.4842  10.4898  10.4989  10.5043
    10.5136  10.5199  10.5286  10.5325  10.5376  10.5443  10.5510  10.5589
    10.5662  10.5729  10.5791  10.5856  10.5925  10.6014  10.6121  10.6179
    10.6236  10.6338  10.6370  10.6501  10.6533  10.6585  10.6709  10.6743
    10.6834  10.6877  10.6907  10.6968  10.7082  10.7147  10.7199  10.7280
    10.7332  10.7380  10.7452  10.7489  10.7565  10.7660  10.7708  10.7752
    10.7841  10.7898  10.7999  10.8054  10.8117  10.8167  10.8215  10.8262
    10.8385  10.8434  10.8526  10.8588  10.8652  10.8756  10.8841  10.8885
    10.8957  10.9009  10.9110  10.9234  10.9312  10.9368  10.9449  10.9521
    10.9620  10.9673  10.9773  10.9862  10.9909  10.9964  11.0074  11.0137
    11.0240  11.0321  11.0414  11.0472  11.0588  11.0687  11.0742  11.0797
    11.0946  11.0981  11.1024  11.1168  11.1239  11.1289  11.1450  11.1526
    11.1570  11.1668  11.1786  11.1876  11.1959  11.2016  11.2139  11.2221
    11.2401  11.2488  11.2546  11.2697  11.2725  11.2865  11.2988  11.3046
    11.3148  11.3181  11.3272  11.3378  11.3412  11.3515  11.3558  11.3674
    11.3744  11.3798  11.3854  11.4097  11.4170  11.4259  11.4355  11.4510
    11.4554  11.4668  11.4721  11.4857  11.5032  11.5094  11.5181  11.5274
    11.5364  11.5479  11.5535  11.5594  11.5725  11.5887  11.6003  11.6174
    11.6224  11.6358  11.6483  11.6546  11.6832  11.6930  11.7010  11.7239
    11.7347  11.7556  11.7661  11.7799  11.8043  11.8239  11.8382  11.8684
    11.8907  11.9239  11.9580  11.9664  12.0095  12.0462  12.0728  12.1031
    12.1510  12.1724  12.2066  12.2302  12.2590  12.2886  12.3321  12.3811
    12.4036  12.4439  12.4639  12.5171  12.5815  12.6077  12.6224  12.6404
    12.6856  12.7166  12.7488  12.7768  12.7978  12.8203  12.8576  12.8970
    12.9289  12.9715  12.9872  13.0146  13.0293  13.0774  13.0948  13.1221
    13.1523  13.1816  13.1868  13.2072  13.2387  13.2585  13.2778  13.3244
    13.3415  13.3649  13.3850  13.4106  13.4503  13.4788  13.4983  13.5301
    13.5386  13.5640  13.5698  13.6125  13.6298  13.6493  13.6706  13.6914
    13.7113  13.7227  13.7399  13.7663  13.7929  13.8135  13.8427  13.8505
    13.8779  13.8869  13.8980  13.9211  13.9510  13.9566  13.9776  13.9968
    14.0396  14.0604  14.0771  14.0945  14.1002  14.1366  14.1499  14.1756
    14.1972  14.2102  14.2294  14.2526  14.2662  14.2900  14.3010  14.3242
    14.3483  14.3689  14.3852  14.4027  14.4227  14.4484  14.4790  14.5015
    14.5291  14.5476  14.5551  14.5832  14.6006  14.6314  14.6497  14.6698
    14.6980  14.7379  14.7518  14.7779  14.8062  14.8399  14.8604  14.8735
    14.8971  14.9308  14.9609  14.9885  15.0034  15.0492  15.0860  15.0979
    15.1427  15.1578  15.1773  15.2333  15.2664  15.3068  15.3300  15.3645
    15.3924  15.4150  15.4684  15.4763  15.5220  15.5364  15.5632  15.5979
    15.6324  15.6567  15.7024  15.7199  15.7582  15.7901  15.8497  15.8616
    15.9117  15.9260  15.9532  15.9789  16.0284  16.0536  16.0924  16.1083
    16.1560  16.1793  16.2031  16.2514  16.2761  16.2921  16.3045  16.3394
    16.3779  16.4236  16.4419  16.4754  16.5131  16.5478  16.5773  16.5991
    16.6278  16.6578  16.6989  16.7158  16.7330  16.7852  16.7983  16.8324
    16.8519  16.8711  16.9184  16.9345  16.9762  17.0139  17.0259  17.0404
    17.0649  17.0972  17.1202  17.1522  17.1635  17.1912  17.2183  17.2486
    17.2823  17.3159  17.3231  17.3591  17.3954  17.4114  17.4401  17.4673
    17.4999  17.5093  17.5237  17.5540  17.6268  17.6520  17.6663  17.7010
    17.7325  17.7526  17.7842  17.7983  17.8081  17.8430  17.8853  17.8890
    17.9315  17.9579  18.0189  18.0279  18.0471  18.0810  18.1348  18.1479
    18.1724  18.2094  18.2336  18.2684  18.2812  18.3258  18.3630  18.3879
    18.4158  18.4716  18.4885  18.5101  18.5631  18.5831  18.6411  18.6567
    18.6957  18.7382  18.7796  18.8083  18.8370  18.8770  18.8822  18.9520
    19.0250  19.0422  19.1269  19.1500  19.1720  19.2232  19.2774  19.3212
    19.3419  19.4138  19.4744  19.5052  19.5329  19.6309  19.6598  19.7273
    19.7643  19.7902  19.8228  19.8726  19.9482  19.9586  20.0179  20.0527
    20.1074  20.1395  20.1655  20.2592  20.2855  20.3048  20.3466  20.3918
    20.4761  20.4939  20.5165  20.5800  20.6237  20.6575  20.6860  20.7249
    20.7754  20.8233  20.8676  20.9019  20.9168  20.9760  21.0196  21.0518
    21.0934  21.1216  21.1687  21.2010  21.2350  21.2992  21.3401  21.3904
    21.4113  21.4256  21.4919  21.5371  21.5923  21.6438  21.6804  21.7010
    21.7581  21.7875  21.8047  21.8472  21.8756  21.9302  21.9543  22.0074
    22.0395  22.0791  22.1086  22.1163  22.1667  22.2062  22.2255  22.3288
    22.3682  22.3816  22.3929  22.4723  22.4914  22.5530  22.5659  22.5921
    22.6090  22.6692  22.7216  22.7579  22.7967  22.8187  22.8757  22.8927
    22.9276  22.9810  23.0381  23.0809  23.0950  23.1457  23.1856  23.2338
    23.2907  23.3118  23.3307  23.3639  23.4165  23.4275  23.5057  23.5323
    23.5736  23.5829  23.6432  23.6603  23.7243  23.7334  23.7708  23.8300
    23.8523  23.8804  23.9210  23.9619  23.9890  24.0190  24.0681  24.1222
    24.1782  24.1964  24.2417  24.2697  24.3114  24.3216  24.3621  24.4118
    24.4597  24.4886  24.5128  24.5383  24.5696  24.6115  24.6286  24.6774
    24.7004  24.7586  24.8063  24.8348  24.8833  24.9156  24.9280  24.9675
    24.9960  25.0356

     occupation numbers 
     1.0000   1.0000   1.0000   1.0000   1.0000   1.0000   1.0000   1.0000
     1.0000   1.0000   1.0000   1.0000   1.0000   1.0000   1.0000   1.0000
     1.0000   1.0000   1.0000   1.0000   1.0000   1.0000   1.0000   1.0000
     1.0000   1.0000   1.0000   1.0000   1.0000   1.0000   1.0000   1.0000
     1.0000   1.0000   1.0000   1.0000   1.0000   1.0000   1.0000   1.0000
     1.0000   1.0000   1.0000   1.0000   1.0000   1.0000   1.0000   1.0000
     1.0000   1.0000   1.0000   1.0000   1.0000   1.0000   1.0000   1.0000
     1.0000   1.0000   1.0000   1.0000   1.0000   1.0000   1.0000   1.0000
     1.0000   1.0000   1.0000   1.0000   1.0000   1.0000   1.0000   1.0000
     1.0000   1.0000   1.0000   1.0000   1.0000   1.0000   1.0000   1.0000
     1.0000   1.0000   1.0000   1.0000   1.0000   1.0000   1.0000   1.0000
     1.0000   1.0000   1.0000   1.0000   1.0000   1.0000   1.0000   1.0000
     1.0000   1.0000   1.0000   1.0000   1.0000   1.0000   1.0000   1.0000
     1.0000   1.0000   1.0000   1.0000   1.0000   1.0000   1.0000   1.0000
     1.0000   1.0000   1.0000   1.0000   1.0000   1.0000   1.0000   1.0000
     1.0000   1.0000   1.0000   1.0000   1.0000   1.0000   1.0000   1.0000
     1.0000   1.0000   1.0000   1.0000   1.0000   1.0000   1.0000   1.0000
     1.0000   1.0000   1.0000   1.0000   1.0000   1.0000   1.0000   1.0000
     1.0000   1.0000   1.0000   1.0000   1.0000   1.0000   1.0000   1.0000
     1.0000   1.0000   1.0000   1.0000   1.0000   1.0000   1.0000   1.0000
     1.0000   1.0000   1.0000   1.0000   1.0000   1.0000   1.0000   1.0000
     1.0000   1.0000   1.0000   1.0000   1.0000   1.0000   1.0000   1.0000
     1.0000   1.0000   1.0000   1.0000   1.0000   1.0000   1.0000   1.0000
     1.0000   1.0000   1.0000   1.0000   1.0000   1.0000   1.0000   1.0000
     1.0000   1.0000   1.0000   1.0000   1.0000   1.0000   1.0000   1.0000
     1.0000   1.0000   1.0000   1.0000   1.0000   1.0000   1.0000   1.0000
     1.0000   1.0000   1.0000   1.0000   1.0000   1.0000   1.0000   1.0000
     1.0000   1.0000   1.0000   1.0000   1.0000   1.0000   1.0000   1.0000
     1.0000   1.0000   1.0000   1.0000   1.0000   1.0000   1.0000   1.0000
     1.0000   1.0000   1.0000   1.0000   1.0000   1.0000   1.0000   1.0000
     1.0000   1.0000   1.0000   1.0000   1.0000   1.0000   1.0000   1.0000
     1.0000   1.0000   1.0000   1.0000   1.0000   1.0000   1.0000   1.0000
     1.0000   1.0000   1.0000   1.0000   1.0000   1.0000   1.0000   1.0000
     1.0000   1.0000   1.0000   1.0000   1.0000   1.0000   1.0000   1.0000
     1.0000   1.0000   1.0000   1.0000   1.0000   1.0000   1.0000   1.0000
     1.0000   1.0000   1.0000   1.0000   1.0000   1.0000   1.0000   1.0000
     1.0000   1.0000   1.0000   1.0000   1.0000   1.0000   1.0000   1.0000
     1.0000   1.0000   1.0000   1.0000   1.0000   1.0000   1.0000   1.0000
     1.0000   1.0000   1.0000   1.0000   1.0000   1.0000   1.0000   1.0000
     1.0000   1.0000   1.0000   1.0000   1.0000   1.0000   1.0000   1.0000
     1.0000   1.0000   1.0000   1.0000   1.0000   1.0000   1.0000   1.0000
     1.0000   1.0000   1.0000   1.0000   1.0000   1.0000   1.0000   1.0000
     1.0000   1.0000   1.0000   1.0000   1.0000   1.0000   1.0000   1.0000
     1.0000   1.0000   1.0000   1.0000   1.0000   1.0000   1.0000   1.0000
     1.0000   1.0000   1.0000   1.0000   1.0000   1.0000   1.0000   1.0000
     1.0000   1.0000   1.0000   1.0000   1.0000   1.0000   1.0000   1.0000
     1.0000   1.0000   1.0000   1.0000   1.0000   1.0000   1.0000   1.0000
     1.0000   1.0000   1.0000   1.0000   1.0000   1.0000   1.0000   1.0000
     1.0000   1.0000   1.0000   1.0000   1.0000   1.0000   1.0000   1.0000
     1.0000   1.0000   1.0000   1.0000   1.0000   1.0000   1.0000   1.0000
     1.0000   1.0000   1.0000   1.0000   1.0000   1.0000   1.0000   1.0000
     1.0000   1.0000   1.0000   1.0000   1.0000   1.0000   1.0000   1.0000
     1.0000   1.0000   1.0000   1.0000   1.0000   1.0000   1.0000   1.0000
     1.0000   1.0000   1.0000   1.0000   1.0000   1.0000   1.0000   1.0000
     1.0000   1.0000   1.0000   1.0000   1.0000   1.0000   1.0000   1.0000
     1.0000   1.0000   1.0000   1.0000   1.0000   1.0000   1.0000   1.0000
     1.0000   1.0000   1.0000   1.0000   1.0000   1.0000   1.0000   1.0000
     1.0000   1.0000   1.0000   1.0000   1.0000   1.0000   1.0000   1.0000
     1.0000   1.0000   1.0000   1.0000   1.0000   1.0000   1.0000   1.0000
     1.0000   1.0000   1.0000   1.0000   1.0000   1.0000   1.0000   1.0000
     1.0000   1.0000   1.0000   1.0000   1.0000   1.0000   1.0000   1.0000
     1.0000   1.0000   1.0000   1.0000   1.0000   1.0000   1.0000   1.0000
     1.0000   1.0000   1.0000   1.0000   1.0000   1.0000   1.0000   1.0000
     1.0000   1.0000   1.0000   1.0000   1.0000   1.0000   1.0000   1.0000
     1.0000   1.0000   1.0000   1.0000   1.0000   1.0000   1.0000   1.0000
     1.0000   1.0000   1.0000   1.0000   1.0000   1.0000   1.0000   1.0000
     1.0000   1.0000   1.0000   1.0000   1.0000   1.0000   1.0000   1.0000
     1.0000   1.0000   1.0000   1.0000   1.0000   1.0000   1.0000   1.0000
     1.0000   1.0000   1.0000   1.0000   1.0000   1.0000   1.0000   1.0000
     1.0000   1.0000   1.0000   1.0000   1.0000   1.0000   1.0000   1.0000
     1.0000   1.0000   1.0000   1.0000   1.0000   1.0000   1.0000   1.0000
     1.0000   1.0000   1.0000   1.0000   1.0000   1.0000   1.0000   1.0000
     1.0000   1.0000   1.0000   1.0000   1.0000   1.0000   1.0000   1.0000
     1.0000   1.0000   1.0000   1.0000   1.0000   1.0000   1.0000   1.0000
     1.0000   1.0000   1.0000   1.0000   1.0000   1.0000   1.0000   1.0000
     1.0000   1.0000   1.0000   1.0000   1.0000   1.0000   1.0000   1.0000
[...]
     atom   84 type  2   force =     0.00001152   -0.00003583    0.00024595
     atom   85 type  3   force =    -0.00109159   -0.00148537   -0.00216800
     atom   86 type  3   force =     0.00359636    0.00036206    0.00143436
     atom   87 type  3   force =    -0.00133642    0.00126724   -0.00225443
     atom   88 type  3   force =     0.00032580    0.00075817    0.00063006
     atom   89 type  2   force =    -0.00014107   -0.00015657   -0.00005337
     atom   90 type  3   force =     0.00047764   -0.00205626   -0.00080767
     atom   91 type  2   force =     0.00003344    0.00015657   -0.00020423
     atom   92 type  2   force =     0.00029450   -0.00001048   -0.00022045
     atom   93 type  3   force =    -0.00052162   -0.00232312    0.00082365
     atom   94 type  2   force =     0.00001860    0.00029160    0.00046216
     atom   95 type  3   force =    -0.00014906   -0.00092493   -0.00002750
     atom   96 type  3   force =     0.00156890   -0.00142453   -0.00186193
     atom   97 type  2   force =    -0.00012313    0.00012341    0.00008051
     atom   98 type  2   force =     0.00001028   -0.00011051   -0.00043456
     atom   99 type  1   force =    -0.00374602    0.00051473   -0.00283077
     atom  100 type  1   force =    -0.00335107    0.00155669   -0.00385700
     The Hubbard contrib.    to forces
     atom    1 type  2   force =     0.00000000    0.00000000    0.00000000
     atom    2 type  2   force =     0.00000000    0.00000000    0.00000000
     atom    3 type  1   force =     0.00000000    0.00000000    0.00000000
     atom    4 type  3   force =     0.00000000    0.00000000    0.00000000
     atom    5 type  3   force =     0.00000000    0.00000000    0.00000000
     atom    6 type  3   force =     0.00000000    0.00000000    0.00000000
     atom    7 type  3   force =     0.00000000    0.00000000    0.00000000
     atom    8 type  3   force =     0.00000000    0.00000000    0.00000000
     atom    9 type  3   force =     0.00000000    0.00000000    0.00000000
     atom   10 type  2   force =     0.00000000    0.00000000    0.00000000
     atom   11 type  2   force =     0.00000000    0.00000000    0.00000000
     atom   12 type  2   force =     0.00000000    0.00000000    0.00000000
     atom   13 type  3   force =     0.00000000    0.00000000    0.00000000
     atom   14 type  1   force =     0.00000000    0.00000000    0.00000000
     atom   15 type  2   force =     0.00000000    0.00000000    0.00000000
     atom   16 type  3   force =     0.00000000    0.00000000    0.00000000
     atom   17 type  2   force =     0.00000000    0.00000000    0.00000000
     atom   18 type  2   force =     0.00000000    0.00000000    0.00000000
     atom   19 type  2   force =     0.00000000    0.00000000    0.00000000
     atom   20 type  3   force =     0.00000000    0.00000000    0.00000000
     atom   21 type  3   force =     0.00000000    0.00000000    0.00000000
     atom   22 type  2   force =     0.00000000    0.00000000    0.00000000
     atom   23 type  2   force =     0.00000000    0.00000000    0.00000000
     atom   24 type  3   force =     0.00000000    0.00000000    0.00000000
     atom   25 type  3   force =     0.00000000    0.00000000    0.00000000
     atom   26 type  2   force =     0.00000000    0.00000000    0.00000000
     atom   27 type  2   force =     0.00000000    0.00000000    0.00000000
     atom   28 type  3   force =     0.00000000    0.00000000    0.00000000
     atom   29 type  2   force =     0.00000000    0.00000000    0.00000000
     atom   30 type  3   force =     0.00000000    0.00000000    0.00000000
     atom   31 type  2   force =     0.00000000    0.00000000    0.00000000
     atom   32 type  2   force =     0.00000000    0.00000000    0.00000000
     atom   33 type  2   force =     0.00000000    0.00000000    0.00000000
     atom   34 type  1   force =     0.00000000    0.00000000    0.00000000
     atom   35 type  3   force =     0.00000000    0.00000000    0.00000000
     atom   36 type  2   force =     0.00000000    0.00000000    0.00000000
     atom   37 type  2   force =     0.00000000    0.00000000    0.00000000
     atom   38 type  3   force =     0.00000000    0.00000000    0.00000000
     atom   39 type  2   force =     0.00000000    0.00000000    0.00000000
     atom   40 type  3   force =     0.00000000    0.00000000    0.00000000
     atom   41 type  2   force =     0.00000000    0.00000000    0.00000000
     atom   42 type  2   force =     0.00000000    0.00000000    0.00000000
     atom   43 type  3   force =     0.00000000    0.00000000    0.00000000
     atom   44 type  2   force =     0.00000000    0.00000000    0.00000000
     atom   45 type  3   force =     0.00000000    0.00000000    0.00000000
     atom   46 type  2   force =     0.00000000    0.00000000    0.00000000
     atom   47 type  2   force =     0.00000000    0.00000000    0.00000000
     atom   48 type  2   force =     0.00000000    0.00000000    0.00000000
     atom   49 type  3   force =     0.00000000    0.00000000    0.00000000
     atom   50 type  1   force =     0.00000000    0.00000000    0.00000000
     atom   51 type  3   force =     0.00000000    0.00000000    0.00000000
     atom   52 type  3   force =     0.00000000    0.00000000    0.00000000
     atom   53 type  3   force =     0.00000000    0.00000000    0.00000000
     atom   54 type  2   force =     0.00000000    0.00000000    0.00000000
     atom   55 type  3   force =     0.00000000    0.00000000    0.00000000
     atom   56 type  2   force =     0.00000000    0.00000000    0.00000000
     atom   57 type  2   force =     0.00000000    0.00000000    0.00000000
     atom   58 type  2   force =     0.00000000    0.00000000    0.00000000
     atom   59 type  3   force =     0.00000000    0.00000000    0.00000000
     atom   60 type  3   force =     0.00000000    0.00000000    0.00000000
     atom   61 type  2   force =     0.00000000    0.00000000    0.00000000
     atom   62 type  1   force =     0.00000000    0.00000000    0.00000000
     atom   63 type  3   force =     0.00000000    0.00000000    0.00000000
     atom   64 type  2   force =     0.00000000    0.00000000    0.00000000
     atom   65 type  3   force =     0.00000000    0.00000000    0.00000000
     atom   66 type  2   force =     0.00000000    0.00000000    0.00000000
     atom   67 type  2   force =     0.00000000    0.00000000    0.00000000
     atom   68 type  3   force =     0.00000000    0.00000000    0.00000000
     atom   69 type  3   force =     0.00000000    0.00000000    0.00000000
     atom   70 type  2   force =     0.00000000    0.00000000    0.00000000
     atom   71 type  1   force =     0.00000000    0.00000000    0.00000000
     atom   72 type  2   force =     0.00000000    0.00000000    0.00000000
     atom   73 type  3   force =     0.00000000    0.00000000    0.00000000
     atom   74 type  1   force =     0.00000000    0.00000000    0.00000000
     atom   75 type  2   force =     0.00000000    0.00000000    0.00000000
     atom   76 type  3   force =     0.00000000    0.00000000    0.00000000
     atom   77 type  3   force =     0.00000000    0.00000000    0.00000000
     atom   78 type  3   force =     0.00000000    0.00000000    0.00000000
     atom   79 type  3   force =     0.00000000    0.00000000    0.00000000
     atom   80 type  3   force =     0.00000000    0.00000000    0.00000000
     atom   81 type  2   force =     0.00000000    0.00000000    0.00000000
     atom   82 type  1   force =     0.00000000    0.00000000    0.00000000
     atom   83 type  3   force =     0.00000000    0.00000000    0.00000000
     atom   84 type  2   force =     0.00000000    0.00000000    0.00000000
     atom   85 type  3   force =     0.00000000    0.00000000    0.00000000
     atom   86 type  3   force =     0.00000000    0.00000000    0.00000000
     atom   87 type  3   force =     0.00000000    0.00000000    0.00000000
     atom   88 type  3   force =     0.00000000    0.00000000    0.00000000
     atom   89 type  2   force =     0.00000000    0.00000000    0.00000000
     atom   90 type  3   force =     0.00000000    0.00000000    0.00000000
     atom   91 type  2   force =     0.00000000    0.00000000    0.00000000
     atom   92 type  2   force =     0.00000000    0.00000000    0.00000000
     atom   93 type  3   force =     0.00000000    0.00000000    0.00000000
     atom   94 type  2   force =     0.00000000    0.00000000    0.00000000
     atom   95 type  3   force =     0.00000000    0.00000000    0.00000000
     atom   96 type  3   force =     0.00000000    0.00000000    0.00000000
     atom   97 type  2   force =     0.00000000    0.00000000    0.00000000
     atom   98 type  2   force =     0.00000000    0.00000000    0.00000000
     atom   99 type  1   force =     0.00000000    0.00000000    0.00000000
     atom  100 type  1   force =     0.00000000    0.00000000    0.00000000
     The SCF correction term to forces
     atom    1 type  2   force =     0.00103056    0.00007345    0.00077264
     atom    2 type  2   force =     0.00050885    0.00004026    0.00060756
     atom    3 type  1   force =     0.00007111   -0.00003624   -0.00004165
     atom    4 type  3   force =    -0.00036375   -0.00000765   -0.00043008
     atom    5 type  3   force =     0.00048498   -0.00023974    0.00002260
     atom    6 type  3   force =    -0.00007551   -0.00025602    0.00043983
     atom    7 type  3   force =     0.00040177   -0.00014794    0.00038284
     atom    8 type  3   force =     0.00071392   -0.00032432   -0.00010580
     atom    9 type  3   force =     0.00068979   -0.00029159   -0.00055936
     atom   10 type  2   force =     0.00009286   -0.00018171   -0.00068174
     atom   11 type  2   force =     0.00050165    0.00008770    0.00055865
     atom   12 type  2   force =    -0.00001566    0.00010646    0.00052266
     atom   13 type  3   force =    -0.00004945   -0.00021866    0.00042752
     atom   14 type  1   force =     0.00001320    0.00001683    0.00003273
     atom   15 type  2   force =     0.00096196   -0.00017009   -0.00027561
     atom   16 type  3   force =     0.00080102    0.00021047   -0.00029481
     atom   17 type  2   force =     0.00037750    0.00023664   -0.00030188
     atom   18 type  2   force =     0.00098623    0.00045672    0.00026931
     atom   19 type  2   force =     0.00052994    0.00021605    0.00031956
     atom   20 type  3   force =     0.00011413    0.00027321    0.00029012
     atom   21 type  3   force =    -0.00007640    0.00018516   -0.00020025
     atom   22 type  2   force =     0.00027008    0.00025484   -0.00052200
     atom   23 type  2   force =     0.00024629    0.00010792   -0.00061134
     atom   24 type  3   force =     0.00018299    0.00015723   -0.00012431
     atom   25 type  3   force =    -0.00023932   -0.00006216    0.00042448
     atom   26 type  2   force =    -0.00116392    0.00002115    0.00076276
     atom   27 type  2   force =    -0.00103551   -0.00024416    0.00055363
     atom   28 type  3   force =    -0.00045123    0.00016325   -0.00009753
     atom   29 type  2   force =    -0.00104566    0.00032291   -0.00073917
     atom   30 type  3   force =    -0.00053286    0.00008454   -0.00042840
     atom   31 type  2   force =    -0.00072539    0.00015168    0.00030521
     atom   32 type  2   force =    -0.00097647   -0.00042464    0.00011324
     atom   33 type  2   force =    -0.00107664   -0.00027963    0.00090355
     atom   34 type  1   force =    -0.00014785   -0.00006538    0.00010237
     atom   35 type  3   force =    -0.00018005   -0.00006285   -0.00016289
     atom   36 type  2   force =    -0.00103417   -0.00017405    0.00004374
     atom   37 type  2   force =    -0.00107710   -0.00000709   -0.00102758
     atom   38 type  3   force =    -0.00067026   -0.00005470   -0.00024811
     atom   39 type  2   force =    -0.00072157    0.00009562    0.00040042
     atom   40 type  3   force =    -0.00045874    0.00010321    0.00037059
     atom   41 type  2   force =    -0.00066112   -0.00034506    0.00014461
     atom   42 type  2   force =    -0.00123225   -0.00012312   -0.00096911
     atom   43 type  3   force =    -0.00016617   -0.00005980   -0.00054005
     atom   44 type  2   force =    -0.00109543    0.00022726   -0.00036724
     atom   45 type  3   force =    -0.00042238    0.00034162    0.00028777
     atom   46 type  2   force =    -0.00077700    0.00051310    0.00030356
     atom   47 type  2   force =    -0.00072645    0.00023206   -0.00012492
     atom   48 type  2   force =    -0.00080031   -0.00024170   -0.00038587
     atom   49 type  3   force =    -0.00063297    0.00005415   -0.00023431
     atom   50 type  1   force =    -0.00001015   -0.00004421    0.00014531
     atom   51 type  3   force =     0.00000165   -0.00005368    0.00009948
     atom   52 type  3   force =     0.00017719   -0.00017489   -0.00066835
     atom   53 type  3   force =    -0.00058325   -0.00001730   -0.00013466
     atom   54 type  2   force =    -0.00033582   -0.00014346    0.00056798
     atom   55 type  3   force =    -0.00055981   -0.00028998    0.00042245
     atom   56 type  2   force =    -0.00030210   -0.00011542    0.00065845
     atom   57 type  2   force =    -0.00044896   -0.00056027    0.00070830
     atom   58 type  2   force =    -0.00005437   -0.00063873   -0.00022884
     atom   59 type  3   force =    -0.00065595   -0.00010259    0.00036427
     atom   60 type  3   force =    -0.00079207   -0.00007028   -0.00036096
     atom   61 type  2   force =    -0.00079451   -0.00013671   -0.00079202
     atom   62 type  1   force =    -0.00000591   -0.00000087    0.00001604
     atom   63 type  3   force =    -0.00043331    0.00017339    0.00043505
     atom   64 type  2   force =    -0.00031274    0.00043131    0.00055202
     atom   65 type  3   force =    -0.00054905    0.00002881   -0.00025103
     atom   66 type  2   force =    -0.00049906    0.00001723   -0.00052953
     atom   67 type  2   force =    -0.00072375   -0.00005816   -0.00073768
     atom   68 type  3   force =    -0.00009319    0.00016554   -0.00004848
     atom   69 type  3   force =    -0.00029252    0.00021552    0.00045968
     atom   70 type  2   force =    -0.00039659    0.00024044   -0.00002633
     atom   71 type  1   force =     0.00003900    0.00004569   -0.00012749
     atom   72 type  2   force =    -0.00064192    0.00010367   -0.00066797
     atom   73 type  3   force =     0.00031352    0.00009621   -0.00046739
     atom   74 type  1   force =    -0.00013011    0.00005334    0.00003706
     atom   75 type  2   force =     0.00094786   -0.00023232    0.00090448
     atom   76 type  3   force =     0.00047375   -0.00026687    0.00042684
     atom   77 type  3   force =     0.00049135    0.00013362   -0.00021404
     atom   78 type  3   force =     0.00061554   -0.00026624   -0.00065098
     atom   79 type  3   force =     0.00020654   -0.00021542   -0.00007556
     atom   80 type  3   force =     0.00065083   -0.00008134    0.00001043
     atom   81 type  2   force =     0.00045115   -0.00013063    0.00074369
     atom   82 type  1   force =     0.00015129   -0.00002373    0.00010377
     atom   83 type  3   force =     0.00021660   -0.00009107    0.00015893
     atom   84 type  2   force =     0.00083378   -0.00085533   -0.00055362
     atom   85 type  3   force =     0.00027648   -0.00028047   -0.00050946
     atom   86 type  3   force =     0.00064443   -0.00003513    0.00009023
     atom   87 type  3   force =     0.00041489    0.00014586    0.00033323
     atom   88 type  3   force =     0.00054306    0.00012125    0.00014796
     atom   89 type  2   force =     0.00049624    0.00029493    0.00061346
     atom   90 type  3   force =     0.00024089    0.00033297   -0.00048732
     atom   91 type  2   force =     0.00095965    0.00012439   -0.00061585
     atom   92 type  2   force =     0.00066564    0.00022679    0.00004404
     atom   93 type  3   force =     0.00047790    0.00005474    0.00025788
     atom   94 type  2   force =     0.00041404    0.00015791    0.00057453
     atom   95 type  3   force =     0.00033033    0.00005188    0.00058619
     atom   96 type  3   force =     0.00027160    0.00044593   -0.00006498
     atom   97 type  2   force =     0.00052091    0.00049693    0.00049383
     atom   98 type  2   force =     0.00087470    0.00076792   -0.00040197
     atom   99 type  1   force =     0.00015166    0.00007569   -0.00012069
     atom  100 type  1   force =     0.00015860    0.00004453   -0.00001016

     Total force =     0.288618     Total SCF correction =     0.007791

     Writing output data file Zr45Cu45Al10.save
 
     init_run     :     34.66s CPU     35.68s WALL (       1 calls)
     electrons    :   5752.68s CPU   5855.64s WALL (       1 calls)
     forces       :     21.67s CPU     22.37s WALL (       1 calls)

     Called by init_run:
     wfcinit      :     27.62s CPU     27.98s WALL (       1 calls)
     wfcinit:atom :      0.07s CPU      0.10s WALL (       1 calls)
     wfcinit:wfcr :     27.29s CPU     27.56s WALL (       1 calls)
     potinit      :      1.22s CPU      1.31s WALL (       1 calls)

     Called by electrons:
     c_bands      :   4867.58s CPU   4927.52s WALL (      56 calls)
     sum_band     :    747.83s CPU    769.68s WALL (      56 calls)
     v_of_rho     :     22.59s CPU     23.28s WALL (      57 calls)
     v_h          :      2.08s CPU      2.16s WALL (      57 calls)
     v_xc         :     20.86s CPU     21.48s WALL (      58 calls)
     newd         :     96.03s CPU    115.14s WALL (      57 calls)
     PAW_pot      :     10.04s CPU     10.52s WALL (      57 calls)
     mix_rho      :      5.73s CPU      6.03s WALL (      56 calls)

     Called by c_bands:
     init_us_2    :      9.57s CPU      9.68s WALL (     113 calls)
     cegterg      :   4473.44s CPU   4522.54s WALL (      56 calls)

     Called by sum_band:
     sum_band:bec :      1.35s CPU      1.36s WALL (      56 calls)
     addusdens    :    127.84s CPU    145.40s WALL (      56 calls)

     Called by *egterg:
     h_psi        :   1935.81s CPU   1946.56s WALL (     150 calls)
     s_psi        :    396.95s CPU    398.32s WALL (     150 calls)
     g_psi        :      2.72s CPU      2.73s WALL (      93 calls)
     cdiaghg      :    973.82s CPU    987.80s WALL (     149 calls)
     cegterg:over :    466.79s CPU    469.26s WALL (      93 calls)
     cegterg:upda :    284.88s CPU    286.36s WALL (      93 calls)
     cegterg:last :    250.24s CPU    250.45s WALL (      56 calls)
     cdiaghg:chol :     50.18s CPU     50.64s WALL (     149 calls)
     cdiaghg:inve :     62.10s CPU     62.74s WALL (     149 calls)
     cdiaghg:para :    145.79s CPU    151.61s WALL (     298 calls)

     Called by h_psi:
     h_psi:pot    :   1929.14s CPU   1939.86s WALL (     150 calls)
     h_psi:calbec :    395.65s CPU    396.70s WALL (     150 calls)
     vloc_psi     :   1136.52s CPU   1144.78s WALL (     150 calls)
     add_vuspsi   :    396.97s CPU    398.38s WALL (     150 calls)

     General routines
     calbec       :    598.09s CPU    599.58s WALL (     210 calls)
     fft          :     28.32s CPU     29.59s WALL (     919 calls)
     ffts         :      0.70s CPU      0.73s WALL (     113 calls)
     fftw         :   1014.99s CPU   1022.67s WALL (  299150 calls)
     interpolate  :      4.54s CPU      4.77s WALL (     113 calls)
 
     Parallel routines
     fft_scatt_xy :     80.54s CPU     80.96s WALL (  300182 calls)
     fft_scatt_yz :    190.07s CPU    192.67s WALL (  300182 calls)

     PAW routines
     PAW_pot      :     10.04s CPU     10.52s WALL (      57 calls)
 
     PWSCF        :     1h36m CPU        1h45m WALL

 
   This run was terminated on:  20:59:59  20May2019            

=------------------------------------------------------------------------------=
   JOB DONE.
=------------------------------------------------------------------------------=
