  COHP#  atomMU  atomNU     distance     translation      ICOHP (at) eF   for spin  1
      1     Cu1     Cu2      2.61100       0   0   0           -0.47001 
      2     Cu1     Zr5      3.03782       0   0   1           -0.59836 
      3     Cu1     Zr7      2.83803       0   0   0           -1.01682 
      4     Cu1    Cu19      2.34258       0   1   0           -0.72881 
      5     Cu1    Zr20      2.62044       0   1   0           -1.50610 
      6     Cu1    Zr25      3.01356       0   0   0           -0.64839 
      7     Cu1    Al50      4.15272       1   0   0           -0.03058 
      8     Cu1    Cu75      2.41470       1   0   0           -0.74712 
      9     Cu1    Zr76      3.39294       1   0   0           -0.31035 
     10     Cu1    Zr80      2.94797       1   0   1           -0.80980 
     11     Cu1    Zr93      3.37035       1   1   0           -0.31884 
     12     Cu1    Zr95      2.73733       1   1   0           -1.14264 
     13     Cu1    Cu97      3.68654       1   1   0           -0.01498 
     14     Cu2     Al3      2.36349       0   0   0           -1.91173 
     15     Cu2     Zr7      2.99379       0   0   0           -0.53146 
     16     Cu2     Zr8      4.17474       0   0   0           -0.01491 
     17     Cu2    Zr20      2.71665       0   1   0           -1.32415 
     18     Cu2    Zr21      2.99009       0   1   0           -0.48752 
     19     Cu2    Zr28      3.53565       0   0   0           -0.15136 
     20     Cu2    Cu47      4.05251       0   1   0           -0.00726 
     21     Cu2    Cu75      4.08269       1   0   0           -0.01045 
     22     Cu2    Zr76      2.96102       1   0   0           -0.71653 
     23     Cu2    Zr77      2.68407       1   0   0           -1.29608 
     24     Cu2    Cu84      3.29814       1   0   0           -0.02270 
     25     Cu2    Zr95      2.86193       1   1   0           -1.05979 
     26     Cu2    Cu97      2.42311       1   1   0           -0.76819 
     27     Cu2    Cu98      4.12815       1   1   0           -0.01007 
     28     Al3     Zr4      2.97449       0   0   0           -1.74965 
     29     Al3     Zr7      3.05845       0   0   0           -1.59657 
     30     Al3     Zr8      3.02578       0   0   0           -1.62891 
     31     Al3     Zr9      2.92808       0   0   0           -1.92299 
     32     Al3    Zr21      2.86810       0   1   0           -2.18639 
     33     Al3    Zr28      2.91989       0   0   0           -1.90185 
     34     Al3    Zr35      2.96135       0   0   0           -1.81201 
     35     Al3    Zr76      3.74917       1   0   0           -0.60152 
     36     Al3    Zr77      3.51717       1   0   0           -0.92947 
     37     Al3    Zr78      3.07946       1   0   0           -1.49440 
     38     Al3    Cu84      2.74450       1   0   0           -0.92934 
     39     Zr4     Zr5      3.32894       0   0   0           -1.13784 
     40     Zr4     Zr9      3.34904       0   0   0           -0.92238 
     41     Zr4    Cu10      2.96421       0   0   0           -0.71409 
     42     Zr4    Zr21      3.12187       0   1   0           -1.46904 
     43     Zr4    Cu23      2.74212       0   1   0           -1.15619 
     44     Zr4    Zr28      3.59042       0   0   0           -0.56300 
     45     Zr4    Cu29      2.88328       0   0   0           -0.86106 
     46     Zr4    Zr30      3.32743       0   0   0           -1.23409 
     47     Zr4    Cu31      3.06644       0   0   0           -0.65884 
     48     Zr4    Cu32      2.93317       0   0   0           -0.86122 
     49     Zr4    Zr35      3.44148       0   0   0           -0.77813 
     50     Zr4    Cu37      2.75832       0   0   0           -1.09058 
     51     Zr4    Zr49      3.53294       0   1   0           -0.79611 
     52     Zr4    Zr53      3.46496       0   0   0           -0.98233 
     53     Zr4    Zr78      3.38963       1   0   0           -0.84914 
     54     Zr5     Zr6      3.06889       0   0  -1           -1.90509 
     55     Zr5     Zr7      4.10791       0   0  -1           -0.30557 
     56     Zr5     Zr9      3.81450       0   0   0           -0.55719 
     57     Zr5    Cu10      2.85510       0   0   0           -0.84425 
     58     Zr5    Cu19      2.90167       0   1  -1           -0.79726 
     59     Zr5    Cu23      2.90911       0   1   0           -0.88239 
     60     Zr5    Zr25      3.15504       0   0  -1           -1.63515 
     61     Zr5    Cu31      2.98762       0   0   0           -0.73537 
     62     Zr5    Cu32      2.85348       0   0   0           -0.87546 
     63     Zr5    Cu75      2.94646       1   0  -1           -0.87247 
     64     Zr5    Zr78      3.12140       1   0   0           -1.78461 
     65     Zr5    Zr79      4.17963       1   0   0           -0.26858 
     66     Zr5    Zr80      3.15149       1   0   0           -1.60529 
     67     Zr5    Zr86      3.12638       1   0   0           -1.69921 
     68     Zr6     Zr7      3.12368       0   0   0           -1.44423 
     69     Zr6    Cu10      2.83434       0   0   1           -1.00052 
     70     Zr6    Cu11      2.75887       0   0   0           -1.10035 
     71     Zr6    Zr13      3.16356       0   0   0           -1.27444 
     72     Zr6    Cu17      2.88811       0   0   1           -1.00060 
     73     Zr6    Zr25      3.13413       0   0   0           -1.41171 
     74     Zr6    Cu32      2.89188       0   0   1           -0.85898 
     75     Zr6    Cu33      2.73341       0   0   0           -1.07545 
     76     Zr6    Al34      3.07508       0   0   0           -1.56785 
     77     Zr6    Zr38      3.45992       0   0   1           -0.99304 
     78     Zr6    Cu39      2.92186       0   0   0           -0.80493 
     79     Zr6    Zr55      3.91128       0   0   0           -0.42550 
     80     Zr6    Cu75      4.14325       1   0   0           -0.04693 
     81     Zr6    Al82      3.48054       1   0   0           -0.86287 
     82     Zr6    Zr86      3.71923       1   0   1           -0.59430 
     83     Zr7     Zr8      3.03016       0   0   0           -1.55631 
     84     Zr7    Cu11      4.15934       0   0   0           -0.02164 
     85     Zr7    Zr13      3.21133       0   0   0           -1.11736 
     86     Zr7    Zr20      4.09507       0   1   0           -0.35333 
     87     Zr7    Zr25      3.04846       0   0   0           -1.81150 
     88     Zr7    Zr28      3.25853       0   0   0           -1.01517 
     89     Zr7    Al34      3.01386       0   0   0           -1.61022 
     90     Zr7    Zr35      3.50596       0   0   0           -0.57628 
     91     Zr7    Cu75      3.30604       1   0   0           -0.32358 
     92     Zr7    Zr76      3.11863       1   0   0           -1.47736 
     93     Zr7    Al82      2.89572       1   0   0           -2.01901 
     94     Zr8     Zr9      3.05210       0   0   0           -1.74228 
     95     Zr8    Zr13      3.59741       0   0   0           -0.63157 
     96     Zr8    Cu15      2.71308       0   0   0           -1.38921 
     97     Zr8    Zr16      4.06846       0   0   0           -0.37607 
     98     Zr8    Zr35      3.47926       0   0   0           -0.69258 
     99     Zr8    Cu58      3.72727       1   0   0           -0.18242 
    100     Zr8    Cu66      4.05288       1   0   0           -0.09254 
    101     Zr8    Zr76      2.93608       1   0   0           -2.22346 
    102     Zr8    Al82      3.04187       1   0   0           -1.55814 
    103     Zr8    Zr83      3.21247       1   0   0           -1.30964 
    104     Zr8    Cu84      2.79430       1   0   0           -0.88524 
    105     Zr8    Zr85      3.65394       1   0   0           -0.67929 
    106     Zr8    Zr88      3.23285       1   0   0           -1.17831 
    107     Zr8    Cu91      2.60144       1   0   0           -1.66475 
    108     Zr9    Cu10      2.53161       0   0   0           -1.85953 
    109     Zr9    Cu15      3.27639       0   0   0           -0.47138 
    110     Zr9    Zr16      3.04718       0   0   0           -2.23398 
    111     Zr9    Cu17      3.52432       0   0   0           -0.24696 
    112     Zr9    Zr35      3.19762       0   0   0           -1.27341 
    113     Zr9    Cu37      3.94118       0   0   0           -0.09972 
    114     Zr9    Zr43      3.49066       0   0   0           -0.84984 
    115     Zr9    Zr78      3.02164       1   0   0           -1.96211 
    116     Zr9    Cu84      3.31779       1   0   0           -0.27332 
    117     Zr9    Zr85      3.11422       1   0   0           -1.70067 
    118     Zr9    Zr86      3.20636       1   0   0           -1.63020 
    119     Zr9    Cu91      3.73075       1   0   0           -0.13812 
    120    Cu10    Zr16      4.10192       0   0   0           -0.06399 
    121    Cu10    Cu17      2.36209       0   0   0           -0.77204 
    122    Cu10    Cu32      2.46537       0   0   0           -0.52451 
    123    Cu10    Zr35      3.86907       0   0   0           -0.12401 
    124    Cu10    Cu37      2.34236       0   0   0           -0.73171 
    125    Cu10    Zr38      3.24338       0   0   0           -0.48708 
    126    Cu10    Cu39      4.13656       0   0  -1           -0.00306 
    127    Cu10    Zr43      2.91914       0   0   0           -0.83667 
    128    Cu10    Zr86      3.41189       1   0   0           -0.29766 
    129    Cu11    Cu12      2.53147       0   0   0           -0.58489 
    130    Cu11    Zr13      2.81141       0   0   0           -0.92820 
    131    Cu11    Cu17      2.59278       0   0   1           -0.45189 
    132    Cu11    Cu18      2.33793       0   0   1           -0.86937 
    133    Cu11    Zr24      3.56513       0   0   1           -0.24789 
    134    Cu11    Cu33      4.04449       0   0   0           -0.00419 
    135    Cu11    Cu39      2.39851       0   0   0           -0.83334 
    136    Cu11    Al82      2.41511       1   0   0           -1.80506 
    137    Cu11    Zr86      3.47749       1   0   1           -0.15782 
    138    Cu11    Zr87      3.47114       1   0   0           -0.15597 
    139    Cu11    Zr88      3.14678       1   0   0           -0.37226 
    140    Cu11    Zr93      3.12946       1   0   0           -0.56312 
    141    Cu12    Zr13      2.73397       0   0   0           -1.08613 
    142    Cu12    Al14      2.60833       0   0   0           -1.20625 
    143    Cu12    Cu18      4.10785       0   0   1           -0.00716 
    144    Cu12    Cu19      3.54584       0   0   0           -0.05744 
    145    Cu12    Zr20      2.58973       0   0   0           -1.32930 
    146    Cu12    Zr24      3.76042       0   0   1           -0.17032 
    147    Cu12    Cu33      4.11862       0   0   0           -0.00470 
    148    Cu12    Cu39      2.47634       0   0   0           -0.61345 
    149    Cu12    Zr40      2.81679       0   0   0           -0.74694 
    150    Cu12    Cu41      4.12445       0   0   0           -0.00029 
    151    Cu12    Zr45      2.76592       0   0   0           -1.18810 
    152    Cu12    Cu46      3.87562       0   0   0           -0.01084 
    153    Cu12    Cu47      3.84594       0   0   0           -0.00800 
    154    Cu12    Zr88      2.99865       1   0   0           -0.49135 
    155    Cu12    Zr93      2.76594       1   0   0           -1.13456 
    156    Cu12    Cu97      3.47375       1   0   0           -0.02868 
    157    Zr13    Al14      3.16875       0   0   0           -1.42493 
    158    Zr13    Cu15      3.10938       0   0   0           -0.45135 
    159    Zr13    Cu33      3.02960       0   0   0           -0.51021 
    160    Zr13    Al34      2.96765       0   0   0           -1.87972 
    161    Zr13    Zr35      3.29033       0   0   0           -1.06341 
    162    Zr13    Cu39      3.15849       0   0   0           -0.50431 
    163    Zr13    Zr40      3.32650       0   0   0           -1.04314 
    164    Zr13    Cu41      2.80107       0   0   0           -0.88489 
    165    Zr13    Zr59      3.54431       0   0   0           -0.72035 
    166    Zr13    Al82      3.37911       1   0   0           -1.02361 
    167    Zr13    Zr88      3.27962       1   0   0           -1.01899 
    168    Al14    Cu15      2.50208       0   0   0           -1.59392 
    169    Al14    Zr20      2.91858       0   0   0           -1.98894 
    170    Al14    Zr21      3.18700       0   0   0           -1.37486 
    171    Al14    Cu22      3.05138       0   0   0           -0.62844 
    172    Al14    Zr40      2.91444       0   0   0           -1.98815 
    173    Al14    Cu41      2.68263       0   0   0           -1.18553 
    174    Al14    Zr43      4.13364       0   0   0           -0.28811 
    175    Al14    Cu46      4.12519       0   0   0           -0.01476 
    176    Al14    Cu47      2.54762       0   0   0           -1.38239 
    177    Al14    Cu48      2.64686       0   0   0           -1.13020 
    178    Al14    Zr88      2.93506       1   0   0           -1.95157 
    179    Al14    Cu97      2.68431       1   0   0           -1.08399 
    180    Al14    Cu98      2.76423       1   0   0           -1.09856 
    181    Cu15    Zr16      2.76138       0   0   0           -1.21492 
    182    Cu15    Cu22      3.00293       0   0   0           -0.13540 
    183    Cu15    Zr35      3.14016       0   0   0           -0.57065 
    184    Cu15    Cu41      2.63498       0   0   0           -0.25711 
    185    Cu15    Zr43      2.86748       0   0   0           -0.91368 
    186    Cu15    Cu48      3.66104       0   0   0            0.00334 
    187    Cu15    Zr88      2.96252       1   0   0           -0.55527 
    188    Cu15    Cu91      2.76583       1   0   0           -0.25144 
    189    Cu15    Cu97      4.11308       1   0   0            0.00021 
    190    Cu15    Cu98      2.75888       1   0   0           -0.22974 
    191    Zr16    Cu17      2.96879       0   0   0           -0.79179 
    192    Zr16    Cu18      2.82441       0   0   0           -0.74571 
    193    Zr16    Cu22      2.80241       0   0   0           -0.97685 
    194    Zr16    Zr24      3.46007       0   0   0           -0.71825 
    195    Zr16    Zr43      3.30142       0   0   0           -1.30328 
    196    Zr16    Cu66      4.19351       1   0   0           -0.04380 
    197    Zr16    Zr85      3.35750       1   0   0           -1.13800 
    198    Zr16    Zr86      3.61457       1   0   0           -0.66275 
    199    Zr16    Zr90      3.22758       1   0   0           -1.25453 
    200    Zr16    Cu91      2.58405       1   0   0           -1.53320 
    201    Zr16    Cu92      2.77226       1   0   0           -1.01100 
    202    Zr16    Cu98      2.79239       1   0   0           -0.94541 
    203    Zr16    Al99      3.34512       1   0   0           -0.87859 
    204    Zr16   Al100      3.15261       1   0   0           -1.15144 
    205    Cu17    Cu18      2.39938       0   0   0           -0.73310 
    206    Cu17    Cu22      3.84078       0   0   0           -0.03350 
    207    Cu17    Zr24      2.92664       0   0   0           -0.84092 
    208    Cu17    Cu37      4.16227       0   0   0           -0.00868 
    209    Cu17    Zr38      3.52193       0   0   0           -0.27141 
    210    Cu17    Cu39      2.57986       0   0  -1           -0.46526 
    211    Cu17    Zr43      2.73750       0   0   0           -1.26312 
    212    Cu17    Cu44      3.23280       0   0   0           -0.09885 
    213    Cu17    Zr86      3.08993       1   0   0           -0.58049 
    214    Cu17    Cu92      4.15863       1   0   0           -0.00713 
    215    Cu18    Zr24      2.71245       0   0   0           -0.99785 
    216    Cu18    Cu39      3.79122       0   0  -1           -0.00393 
    217    Cu18    Al62      4.04640       1   0   0           -0.03600 
    218    Cu18    Cu81      4.16904       1   0  -1           -0.00242 
    219    Cu18    Al82      3.66165       1   0  -1           -0.25160 
    220    Cu18    Zr86      2.81335       1   0   0           -1.08025 
    221    Cu18    Zr87      2.77737       1   0  -1           -0.94985 
    222    Cu18    Cu92      2.35361       1   0   0           -0.54469 
    223    Cu18    Zr93      2.93596       1   0  -1           -0.60725 
    224    Cu18    Cu94      3.87681       1   0  -1           -0.01918 
    225    Cu18    Al99      4.19328       1   0   0           -0.02194 
    226    Cu18   Al100      2.41057       1   0   0           -1.65380 
    227    Cu19    Zr20      2.78228       0   0   0           -1.00769 
    228    Cu19    Cu23      2.76320       0   0   1           -0.31277 
    229    Cu19    Zr24      2.77069       0   0   1           -1.08862 
    230    Cu19    Zr25      2.88175       0  -1   0           -0.84767 
    231    Cu19    Cu26      4.04559       0  -1   0           -0.00203 
    232    Cu19    Cu31      2.47589       0  -1   1           -0.53384 
    233    Cu19    Cu32      4.19223       0  -1   1           -0.00784 
    234    Cu19    Zr45      2.60322       0   0   0           -1.52598 
    235    Cu19    Cu46      3.96610       0   0   0           -0.01751 
    236    Cu19    Zr49      3.93270       0   0   1           -0.11373 
    237    Cu19    Cu75      4.13977       1  -1   0           -0.00904 
    238    Cu19    Zr80      2.89650       1  -1   1           -0.80330 
    239    Cu19    Zr93      2.82229       1   0   0           -0.85065 
    240    Zr20    Zr21      3.70346       0   0   0           -0.47577 
    241    Zr20    Zr25      3.25886       0  -1   0           -1.38459 
    242    Zr20    Zr28      3.42117       0  -1   0           -0.96386 
    243    Zr20    Zr40      3.62516       0   0   0           -0.52724 
    244    Zr20    Zr45      3.03410       0   0   0           -2.05511 
    245    Zr20    Cu46      2.67785       0   0   0           -1.21318 
    246    Zr20    Cu47      2.68112       0   0   0           -0.96820 
    247    Zr20    Zr93      3.25902       1   0   0           -1.32419 
    248    Zr20    Zr95      3.94787       1   0   0           -0.41181 
    249    Zr20    Cu97      2.62026       1   0   0           -1.25114 
    250    Zr21    Cu22      2.59270       0   0   0           -1.40995 
    251    Zr21    Cu23      2.87256       0   0   0           -0.71947 
    252    Zr21    Zr28      3.43590       0  -1   0           -0.83792 
    253    Zr21    Zr30      3.58457       0  -1   0           -0.82668 
    254    Zr21    Cu47      2.78344       0   0   0           -0.94073 
    255    Zr21    Cu48      3.17292       0   0   0           -0.41935 
    256    Zr21    Zr49      3.48709       0   0   0           -0.97788 
    257    Zr21    Zr77      3.36301       1  -1   0           -0.81812 
    258    Zr21    Zr78      3.52915       1  -1   0           -0.49519 
    259    Zr21    Cu97      3.13336       1   0   0           -0.42081 
    260    Zr21    Cu98      2.92754       1   0   0           -0.47385 
    261    Zr21    Al99      2.90809       1   0   0           -2.11312 
    262    Cu22    Cu23      3.10849       0   0   0           -0.05685 
    263    Cu22    Zr24      2.77651       0   0   0           -0.95495 
    264    Cu22    Cu41      3.75663       0   0   0            0.00933 
    265    Cu22    Cu42      4.07899       0   0   0           -0.00150 
    266    Cu22    Zr43      2.80507       0   0   0           -1.13923 
    267    Cu22    Cu44      3.76396       0   0   0           -0.03869 
    268    Cu22    Cu47      3.86425       0   0   0            0.00306 
    269    Cu22    Cu48      2.44020       0   0   0           -0.55241 
    270    Cu22    Zr49      2.80249       0   0   0           -1.06918 
    271    Cu22    Cu97      4.17542       1   0   0           -0.00652 
    272    Cu22    Cu98      2.43267       1   0   0           -0.34758 
    273    Cu22    Al99      2.69682       1   0   0           -1.06127 
    274    Cu22   Al100      4.14162       1   0   0           -0.00010 
    275    Cu23    Zr24      2.68937       0   0   0           -1.12265 
    276    Cu23    Cu31      2.57490       0  -1   0           -0.51291 
    277    Cu23    Cu32      4.08735       0  -1   0           -0.00794 
    278    Cu23    Zr49      2.71042       0   0   0           -1.25821 
    279    Cu23    Zr78      2.79339       1  -1   0           -0.80882 
    280    Cu23    Zr80      3.14111       1  -1   0           -0.42118 
    281    Cu23    Al99      2.59891       1   0   0           -1.26093 
    282    Cu23   Al100      4.06073       1   0   0           -0.00996 
    283    Zr24    Cu31      3.73284       0  -1   0           -0.14017 
    284    Zr24    Cu39      3.23658       0   0  -1           -0.46380 
    285    Zr24    Zr43      3.92973       0   0   0           -0.44354 
    286    Zr24    Cu44      2.98169       0   0   0           -0.84307 
    287    Zr24    Zr45      3.37635       0   0  -1           -1.11529 
    288    Zr24    Zr49      3.07641       0   0   0           -1.98298 
    289    Zr24    Zr80      3.70517       1  -1   0           -0.39187 
    290    Zr24    Zr93      2.98029       1   0  -1           -2.05808 
    291    Zr24    Al99      3.13828       1   0   0           -1.17372 
    292    Zr24   Al100      3.01644       1   0   0           -1.52441 
    293    Zr25    Cu26      2.72390       0   0   0           -1.37818 
    294    Zr25    Cu27      2.76781       0   0   0           -0.90142 
    295    Zr25    Zr28      3.39569       0   0   0           -0.87911 
    296    Zr25    Cu31      2.79659       0   0   1           -1.09925 
    297    Zr25    Cu32      2.88075       0   0   1           -0.79519 
    298    Zr25    Al34      2.88866       0   0   0           -1.98187 
    299    Zr25    Zr45      3.48293       0   1   0           -0.88017 
    300    Zr25    Cu46      2.88677       0   1   0           -0.77477 
    301    Zr25    Zr55      3.69906       0   0   0           -0.55723 
    302    Cu26    Cu27      2.55525       0   0   0           -0.55098 
    303    Cu26    Cu31      2.47364       0   0   1           -0.40031 
    304    Cu26    Cu32      3.09708       0   0   1           -0.15754 
    305    Cu26    Zr45      2.94527       0   1   0           -0.52827 
    306    Cu26    Cu46      2.96789       0   1   0           -0.17848 
    307    Cu26    Zr49      4.13644       0   1   1           -0.01596 
    308    Cu26    Al50      3.30705       0   0   0           -0.36079 
    309    Cu26    Zr53      2.74450       0   0   1           -0.90590 
    310    Cu26    Cu54      2.46936       0   0   1           -0.33749 
    311    Cu26    Zr55      3.03048       0   0   0           -0.79312 
    312    Cu26    Zr69      2.75345       0   1   0           -0.90764 
    313    Cu26    Al74      2.37541       0   1   1           -1.92623 
    314    Cu27    Zr28      3.09334       0   0   0           -0.54469 
    315    Cu27    Al34      2.66266       0   0   0           -1.34194 
    316    Cu27    Cu36      2.85121       0   0   0           -0.16624 
    317    Cu27    Cu46      2.47940       0   1   0           -0.68003 
    318    Cu27    Al50      2.86777       0   0   0           -0.87415 
    319    Cu27    Zr51      2.67479       0   0   0           -1.46563 
    320    Cu27    Cu54      3.89154       0   0   1            0.00413 
    321    Cu27    Zr55      3.01530       0   0   0           -0.47355 
    322    Cu27    Cu57      2.43758       0   0   0           -0.38173 
    323    Cu27    Zr69      3.08931       0   1   0           -0.59704 
    324    Cu27    Cu70      3.88750       0   1   0           -0.01803 
    325    Zr28    Cu29      3.07004       0   0   0           -0.63317 
    326    Zr28    Zr30      3.04918       0   0   0           -2.17033 
    327    Zr28    Al34      2.97687       0   0   0           -1.84056 
    328    Zr28    Zr35      3.05734       0   0   0           -1.50954 
    329    Zr28    Cu36      2.82387       0   0   0           -0.82703 
    330    Zr28    Cu46      2.89814       0   1   0           -0.83429 
    331    Zr28    Cu47      2.71916       0   1   0           -1.32615 
    332    Zr28    Zr51      4.11050       0   0   0           -0.29610 
    333    Cu29    Zr30      2.65048       0   0   0           -1.44579 
    334    Cu29    Cu32      4.02782       0   0   0           -0.00297 
    335    Cu29    Zr35      3.13742       0   0   0           -0.50731 
    336    Cu29    Cu36      2.34229       0   0   0           -0.89113 
    337    Cu29    Cu37      2.35685       0   0   0           -0.75207 
    338    Cu29    Zr51      3.79047       0   0   0           -0.12293 
    339    Cu29    Zr52      2.89280       0   0   0           -0.84785 
    340    Cu29    Zr53      3.00996       0   0   0           -0.70406 
    341    Cu29    Cu58      3.42173       0   0   0           -0.04545 
    342    Cu29    Zr60      2.83213       0   0   0           -0.94401 
    343    Cu29    Cu61      2.98689       0   0   0           -0.21435 
    344    Zr30    Cu36      3.99956       0   0   0           -0.12169 
    345    Zr30    Cu46      3.94749       0   1   0           -0.08648 
    346    Zr30    Cu47      2.57542       0   1   0           -1.81841 
    347    Zr30    Cu48      2.89379       0   1   0           -0.82948 
    348    Zr30    Zr49      3.01131       0   1   0           -2.20794 
    349    Zr30    Zr51      3.64706       0   0   0           -0.54306 
    350    Zr30    Zr52      3.65309       0   0   0           -0.49729 
    351    Zr30    Zr53      3.22659       0   0   0           -1.31340 
    352    Zr30    Zr65      3.86405       0   1   0           -0.30167 
    353    Zr30    Cu70      2.98505       0   1   0           -0.51817 
    354    Zr30    Al71      2.76112       0   1   0           -2.63856 
    355    Zr30    Cu72      2.83476       0   1   0           -0.74915 
    356    Cu31    Cu32      2.40065       0   0   0           -0.68122 
    357    Cu31    Cu44      3.98956       0   1   0           -0.00641 
    358    Cu31    Zr45      2.87787       0   1  -1           -0.73755 
    359    Cu31    Zr49      2.56074       0   1   0           -1.51468 
    360    Cu31    Zr53      2.81154       0   0   0           -0.88762 
    361    Cu31    Al74      3.06924       0   1   0           -0.61876 
    362    Cu32    Cu33      4.06227       0   0  -1           -0.00990 
    363    Cu32    Cu37      2.55050       0   0   0           -0.46627 
    364    Cu32    Zr38      3.29858       0   0   0           -0.37961 
    365    Cu32    Zr53      2.80748       0   0   0           -1.11266 
    366    Cu32    Zr55      2.82538       0   0  -1           -1.15747 
    367    Cu32    Cu61      3.64256       0   0   0           -0.02913 
    368    Cu33    Al34      2.56396       0   0   0           -1.34723 
    369    Cu33    Zr38      2.70773       0   0   1           -1.32596 
    370    Cu33    Cu39      2.51995       0   0   0           -0.58055 
    371    Cu33    Zr40      3.62913       0   0   0           -0.18869 
    372    Cu33    Cu44      3.96719       0   0   1           -0.00621 
    373    Cu33    Zr55      2.92283       0   0   0           -0.70731 
    374    Cu33    Cu56      2.42669       0   0   0           -0.60402 
    375    Cu33    Cu57      3.70579       0   0   0            0.00345 
    376    Cu33    Zr59      2.73600       0   0   0           -0.87870 
    377    Cu33    Zr63      2.64656       0   0   0           -1.59454 
    378    Cu33    Cu64      4.13328       0   0   0           -0.00513 
    379    Al34    Zr35      3.20621       0   0   0           -1.26042 
    380    Al34    Cu36      2.45414       0   0   0           -1.64208 
    381    Al34    Cu41      4.15502       0   0   0           -0.04795 
    382    Al34    Zr55      3.41549       0   0   0           -1.01748 
    383    Al34    Cu56      3.89181       0   0   0           -0.08317 
    384    Al34    Cu57      3.08354       0   0   0           -0.66998 
    385    Al34    Zr59      2.88364       0   0   0           -2.05973 
    386    Zr35    Cu36      3.01488       0   0   0           -0.51805 
    387    Zr35    Cu37      3.10720       0   0   0           -0.58252 
    388    Zr35    Cu41      2.83809       0   0   0           -1.06237 
    389    Zr35    Zr43      3.33968       0   0   0           -1.19796 
    390    Zr35    Zr59      3.91241       0   0   0           -0.33520 
    391    Zr35    Zr60      3.16973       0   0   0           -1.58465 
    392    Cu36    Cu37      4.01761       0   0   0           -0.00810 
    393    Cu36    Zr51      3.04749       0   0   0           -0.69269 
    394    Cu36    Zr52      3.92747       0   0   0           -0.14370 
    395    Cu36    Cu57      2.51369       0   0   0           -0.48425 
    396    Cu36    Cu58      2.55423       0   0   0           -0.60740 
    397    Cu36    Zr59      2.81761       0   0   0           -0.75261 
    398    Cu36    Zr60      2.73049       0   0   0           -1.33461 
    399    Cu37    Zr38      2.82803       0   0   0           -1.06892 
    400    Cu37    Cu42      4.06850       0   0   0           -0.01549 
    401    Cu37    Zr43      3.12790       0   0   0           -0.59066 
    402    Cu37    Zr53      3.36531       0   0   0           -0.36194 
    403    Cu37    Zr55      4.04477       0   0  -1           -0.06915 
    404    Cu37    Zr60      2.67683       0   0   0           -1.31229 
    405    Cu37    Cu61      2.58190       0   0   0           -0.50156 
    406    Cu37    Cu67      3.86907       0   0   0           -0.00686 
    407    Zr38    Cu39      3.07088       0   0  -1           -0.60702 
    408    Zr38    Cu42      3.00048       0   0   0           -0.71155 
    409    Zr38    Zr43      3.39759       0   0   0           -1.07238 