  COHP#  atomMU  atomNU     distance     translation      ICOHP (at) eF   for spin  1
      1     Cu1     Zr2      2.93444       0   0   0           -0.66867 
      2     Cu1     Cu3      2.23000       0   0   0           -0.79979 
      3     Cu1     Cu7      2.32354       0   0   1           -0.68866 
      4     Cu1     Cu8      2.16596       0   0   0           -0.94473 
      5     Cu1     Zr9      2.47052       0   0   0           -1.69110 
      6     Cu1    Cu10      2.34304       0   0   0           -0.54257 
      7     Cu1    Zr11      2.65497       0   0   0           -1.12248 
      8     Cu1    Zr13      3.80453       0   0   1           -0.08990 
      9     Cu1    Cu15      3.68781       0   0   1           -0.02259 
     10     Cu1    Cu21      4.01972       0   1   0           -0.01872 
     11     Cu1    Zr26      2.49306       0   0   0           -1.69893 
     12     Cu1    Cu28      3.79766       0   0   0           -0.01602 
     13     Cu1    Zr32      2.88726       0   0   1           -0.69764 
     14     Cu1    Al34      3.68217       0   0   0           -0.07452 
     15     Cu1    Cu39      3.96900       0   0   0           -0.03036 
     16     Cu1    Cu75      3.88148       1   0   0           -0.03997 
     17     Cu1    Zr76      2.66391       1   0   0           -1.13128 
     18     Cu1    Cu78      3.91399       1   0   0           -0.02194 
     19     Cu1    Zr81      3.95544       1   0   1           -0.08106 
     20     Cu1    Zr82      2.25132       1   0   0           -2.79697 
     21     Cu1    Zr83      4.17163       1   0   0           -0.06713 
     22     Zr2     Cu3      2.54445       0   0   0           -1.47946 
     23     Zr2     Cu7      2.92443       0   0   1           -0.68986 
     24     Zr2    Cu10      4.16148       0   0   0           -0.05275 
     25     Zr2    Zr16      3.84761       0   1   0           -0.41056 
     26     Zr2    Cu21      3.29245       0   1   0           -0.27554 
     27     Zr2    Cu22      2.37220       0   1   0           -2.61401 
     28     Zr2    Zr23      2.94931       0   1   0           -2.16388 
     29     Zr2    Zr26      2.92166       0   0   0           -2.31296 
     30     Zr2    Cu27      2.74244       0   0   0           -0.94421 
     31     Zr2    Cu28      2.66188       0   0   0           -1.09100 
     32     Zr2    Zr32      2.98952       0   0   1           -1.79165 
     33     Zr2    Zr40      3.88796       0   1   0           -0.38913 
     34     Zr2    Cu45      2.53730       0   1   0           -1.46780 
     35     Zr2    Zr46      2.73545       0   1   0           -3.26237 
     36     Zr2    Zr47      2.91441       0   1   0           -2.19907 
     37     Zr2    Zr50      3.00745       0   1   1           -1.73360 
     38     Zr2    Cu53      4.18100       0   0   0           -0.04621 
     39     Zr2    Zr76      2.78097       1   0   0           -3.15591 
     40     Zr2    Cu94      3.95669       1   1   0           -0.04298 
     41     Cu3     Cu4      2.96092       0   0   0           -0.17222 
     42     Cu3     Cu7      3.86801       0   0   1           -0.01134 
     43     Cu3     Cu8      4.07738       0   0   0           -0.02553 
     44     Cu3     Zr9      2.58072       0   0   0           -1.35124 
     45     Cu3    Cu10      2.17945       0   0   0           -1.09396 
     46     Cu3    Zr11      4.16824       0   0   0           -0.03906 
     47     Cu3    Cu22      3.61578       0   1   0           -0.04288 
     48     Cu3    Zr23      2.45430       0   1   0           -1.92647 
     49     Cu3    Zr26      2.75150       0   0   0           -1.00365 
     50     Cu3    Cu27      3.82775       0   0   0           -0.01711 
     51     Cu3    Cu28      2.22641       0   0   0           -0.90863 
     52     Cu3    Zr29      2.62698       0   0   0           -1.33699 
     53     Cu3    Cu35      3.56054       0   0   0           -0.01668 
     54     Cu3    Cu36      4.12342       0   0   0           -0.02542 
     55     Cu3    Zr47      4.16555       0   1   0           -0.04499 
     56     Cu3    Zr48      3.97103       0   1   0           -0.08848 
     57     Cu3    Cu53      3.97805       0   0   0           -0.01406 
     58     Cu3    Zr76      2.65005       1   0   0           -1.07614 
     59     Cu3    Cu78      2.52138       1   0   0           -0.52264 
     60     Cu3    Zr82      4.19008       1   0   0           -0.03964 
     61     Cu3    Zr85      3.61999       1   0   0           -0.14232 
     62     Cu4     Zr5      2.42018       0   0   0           -1.98049 
     63     Cu4     Cu6      2.35590       0   0   0           -0.69559 
     64     Cu4     Zr9      4.04044       0   0   0           -0.06383 
     65     Cu4    Cu10      4.18474       0   0   0           -0.00721 
     66     Cu4    Zr13      3.13804       0   0   0           -0.42634 
     67     Cu4    Cu17      4.02727       0   1   0           -0.02861 
     68     Cu4    Zr23      2.40867       0   1   0           -2.07787 
     69     Cu4    Cu24      3.60683       0   1   0           -0.01794 
     70     Cu4    Cu25      2.38179       0   1   0           -0.60877 
     71     Cu4    Cu28      3.62099       0   0   0           -0.02984 
     72     Cu4    Zr29      2.49587       0   0   0           -1.91723 
     73     Cu4    Cu30      3.84533       0   0   0           -0.02004 
     74     Cu4    Zr48      3.27901       0   1   0           -0.32638 
     75     Cu4    Zr50      4.14857       0   1   0           -0.03720 
     76     Cu4    Cu78      2.24066       1   0   0           -0.87576 
     77     Cu4    Zr79      3.04360       1   0   0           -0.43617 
     78     Cu4    Cu80      3.64096       1   0   0           -0.05814 
     79     Cu4    Zr85      2.58925       1   0   0           -1.34387 
     80     Cu4    Zr96      4.13029       1   1   0           -0.05919 
     81     Cu4    Zr97      2.46175       1   1   0           -1.70445 
     82     Cu4    Cu99      4.05058       1   1   0           -0.02154 
     83     Zr5     Cu6      2.70961       0   0   0           -1.07502 
     84     Zr5     Cu7      2.44786       0   0   0           -1.67115 
     85     Zr5    Zr13      2.71492       0   0   0           -3.53016 
     86     Zr5    Cu21      2.34360       0   1  -1           -2.26814 
     87     Zr5    Cu24      2.49468       0   1   0           -1.64211 
     88     Zr5    Cu25      2.88238       0   1   0           -0.75284 
     89     Zr5    Zr32      4.15364       0   0   0           -0.21638 
     90     Zr5    Zr50      3.10897       0   1   0           -1.54519 
     91     Zr5    Zr55      3.68225       1   0   0           -0.49602 
     92     Zr5    Cu74      3.98931       1   1   0           -0.07164 
     93     Zr5    Cu78      3.97670       1   0   0           -0.08710 
     94     Zr5    Zr79      3.00438       1   0   0           -1.85182 
     95     Zr5    Cu80      2.43232       1   0   0           -1.84575 
     96     Zr5    Zr81      2.60804       1   0   0           -4.32045 
     97     Zr5    Zr82      3.84230       1   0  -1           -0.36781 
     98     Zr5    Zr85      3.51612       1   0   0           -0.70308 
     99     Zr5    Cu86      4.05046       1   0   0           -0.08371 
    100     Zr5    Cu92      4.00417       1   1   0           -0.03952 
    101     Zr5    Zr97      2.89074       1   1   0           -2.40773 
    102     Zr5    Cu99      2.66314       1   1   0           -1.06685 
    103     Zr5   Zr100      3.51023       1   1   0           -0.77493 
    104     Cu6     Cu7      3.07953       0   0   0           -0.16794 
    105     Cu6    Zr13      2.50961       0   0   0           -1.54646 
    106     Cu6    Cu21      3.82803       0   1  -1           -0.01713 
    107     Cu6    Zr23      3.81477       0   1   0           -0.11367 
    108     Cu6    Cu24      3.69736       0   1   0           -0.01413 
    109     Cu6    Cu25      2.31467       0   1   0           -0.70569 
    110     Cu6    Cu28      4.04780       0   0   0           -0.01404 
    111     Cu6    Zr29      2.70427       0   0   0           -1.02965 
    112     Cu6    Cu30      2.13220       0   0   0           -1.06793 
    113     Cu6    Zr31      2.67095       0   0   0           -1.01947 
    114     Cu6    Zr32      2.81135       0   0   0           -0.76407 
    115     Cu6    Zr48      2.46256       0   1   0           -1.93821 
    116     Cu6    Cu49      3.06512       0   1   0           -0.08493 
    117     Cu6    Zr50      2.50138       0   1   0           -1.66994 
    118     Cu6    Zr54      3.59073       0   0   0           -0.17733 
    119     Cu6    Cu61      3.98841       0   0   0           -0.04713 
    120     Cu6    Zr85      4.03601       1   0   0           -0.06317 
    121     Cu6    Zr97      4.08949       1   1   0           -0.06014 
    122     Cu7     Cu8      3.20813       0   0  -1           -0.08510 
    123     Cu7     Zr9      4.17092       0   0  -1           -0.05343 
    124     Cu7    Zr13      2.54381       0   0   0           -1.52163 
    125     Cu7    Cu15      4.12686       0   0   0           -0.01083 
    126     Cu7    Cu21      2.13062       0   1  -1           -1.11175 
    127     Cu7    Cu22      3.96920       0   1  -1           -0.01054 
    128     Cu7    Cu24      3.90737       0   1   0           -0.02693 
    129     Cu7    Zr26      3.93722       0   0  -1           -0.12061 
    130     Cu7    Cu30      3.96880       0   0   0           -0.01890 
    131     Cu7    Zr32      2.41359       0   0   0           -2.10911 
    132     Cu7    Zr50      2.66919       0   1   0           -1.10599 
    133     Cu7    Cu75      4.19976       1   0  -1           -0.02335 
    134     Cu7    Zr76      2.60344       1   0  -1           -1.31716 
    135     Cu7    Cu80      3.40168       1   0   0           -0.08738 
    136     Cu7    Zr81      2.70455       1   0   0           -0.87982 
    137     Cu7    Zr82      2.50206       1   0  -1           -1.65574 
    138     Cu7    Cu86      4.04375       1   0   0           -0.01625 
    139     Cu7    Cu94      4.03614       1   1  -1           -0.02826 
    140     Cu8     Zr9      4.19145       0   0   0           -0.04816 
    141     Cu8    Cu10      3.19492       0   0   0           -0.01345 
    142     Cu8    Zr11      2.38194       0   0   0           -2.18064 
    143     Cu8    Zr13      3.11506       0   0   1           -0.53844 
    144     Cu8    Cu15      2.42835       0   0   1           -0.59687 
    145     Cu8    Zr16      4.05192       0   0   0           -0.02897 
    146     Cu8    Zr26      2.60482       0   0   0           -1.03382 
    147     Cu8    Cu30      3.65639       0   0   1           -0.04215 
    148     Cu8    Zr32      2.44074       0   0   1           -2.05365 
    149     Cu8    Zr33      2.69047       0   0   0           -0.88974 
    150     Cu8    Al34      2.82777       0   0   0           -0.78931 
    151     Cu8    Zr38      2.51674       0   0   1           -1.71171 
    152     Cu8    Cu39      2.17148       0   0   0           -0.80320 
    153     Cu8    Zr40      4.17653       0   0   0           -0.02251 
    154     Cu8    Zr51      4.17363       0   0   0           -0.06448 
    155     Cu8    Cu61      3.82359       0   0   1           -0.02572 
    156     Cu8    Zr82      2.91928       1   0   0           -0.67214 
    157     Cu8    Cu86      3.98952       1   0   1           -0.01186 
    158     Zr9    Cu10      2.60457       0   0   0           -1.43781 
    159     Zr9    Zr11      2.98407       0   0   0           -1.77722 
    160     Zr9    Zr12      2.90222       0   0   0           -2.29893 
    161     Zr9    Zr29      4.01974       0   0   0           -0.27389 
    162     Zr9    Zr52      3.33007       1   0   0           -0.85688 
    163     Zr9    Zr57      4.13665       1   0   0           -0.19842 
    164     Zr9    Cu75      2.79835       1   0   0           -0.75394 
    165     Zr9    Zr76      2.92688       1   0   0           -2.25132 
    166     Zr9    Zr77      2.77170       1   0   0           -2.88697 
    167     Zr9    Cu78      2.43779       1   0   0           -2.03953 
    168     Zr9    Zr82      2.95184       1   0   0           -1.94939 
    169     Zr9    Zr83      2.52540       1   0   0           -5.41357 
    170     Zr9    Cu84      3.18512       1   0   0           -0.34339 
    171     Zr9    Zr85      2.96998       1   0   0           -1.99919 
    172    Cu10    Zr11      2.66091       0   0   0           -0.98014 
    173    Cu10    Zr12      2.69478       0   0   0           -1.16560 
    174    Cu10    Zr14      3.82650       0   0   0           -0.10693 
    175    Cu10    Zr26      2.47149       0   0   0           -1.56243 
    176    Cu10    Cu28      3.29014       0   0   0           -0.04495 
    177    Cu10    Zr29      2.60402       0   0   0           -1.48279 
    178    Cu10    Al34      2.47510       0   0   0           -1.54878 
    179    Cu10    Cu35      2.42205       0   0   0           -0.41309 
    180    Cu10    Cu36      2.17453       0   0   0           -0.78643 
    181    Cu10    Zr37      4.12317       0   0   0           -0.03202 
    182    Cu10    Cu39      3.83687       0   0   0           -0.01526 
    183    Cu10    Zr40      3.45548       0   0   0           -0.13686 
    184    Cu10    Zr41      4.05294       0   0   0           -0.03394 
    185    Cu10    Cu53      3.89000       0   0   0           -0.00559 
    186    Cu10    Cu78      3.89111       1   0   0           -0.00870 
    187    Cu10    Zr82      4.06232       1   0   0           -0.07460 
    188    Cu10    Zr85      3.60413       1   0   0           -0.19856 
    189    Zr11    Zr12      2.99327       0   0   0           -1.37529 
    190    Zr11    Cu15      2.53214       0   0   1           -1.36623 
    191    Zr11    Zr16      2.95402       0   0   0           -1.71491 
    192    Zr11    Cu17      3.98155       0   0   0           -0.04715 
    193    Zr11    Cu22      3.87668       0   0   0           -0.05145 
    194    Zr11    Zr26      3.92441       0   0   0           -0.29539 
    195    Zr11    Al34      3.11372       0   0   0           -1.42115 
    196    Zr11    Cu36      3.62249       0   0   0           -0.08701 
    197    Zr11    Zr38      4.15622       0   0   1           -0.34851 
    198    Zr11    Cu39      2.52060       0   0   0           -1.54608 
    199    Zr11    Zr40      2.83937       0   0   0           -2.20147 
    200    Zr11    Cu45      3.95995       0   0   0           -0.06951 
    201    Zr11    Cu75      4.08311       1   0   0           -0.08484 
    202    Zr11    Zr82      2.68063       1   0   0           -3.77845 
    203    Zr11    Zr83      2.90614       1   0   0           -1.70995 
    204    Zr11    Cu86      4.10947       1   0   1           -0.04583 
    205    Zr11    Zr87      2.78897       1   0   0           -2.43174 
    206    Zr11    Al89      2.50007       1   0   0           -3.01856 
    207    Zr11    Cu94      4.03222       1   0   0           -0.05666 
    208    Zr12    Zr14      2.79028       0   0   0           -3.15976 
    209    Zr12    Cu17      2.57902       0   0   0           -1.05548 
    210    Zr12    Cu18      2.67079       0   0   0           -1.09941 
    211    Zr12    Zr29      3.91062       0   0   0           -0.36017 
    212    Zr12    Al34      4.09045       0   0   0           -0.22395 
    213    Zr12    Cu36      2.39622       0   0   0           -2.08504 
    214    Zr12    Zr40      3.00943       0   0   0           -1.51991 
    215    Zr12    Zr42      3.46173       0   0   0           -0.75150 
    216    Zr12    Zr83      2.95236       1   0   0           -1.60604 
    217    Zr12    Cu84      2.80689       1   0   0           -0.77746 
    218    Zr12    Zr85      2.94020       1   0   0           -2.18203 
    219    Zr12    Al89      2.72872       1   0   0           -2.31851 
    220    Zr12    Zr90      2.75964       1   0   0           -2.80653 
    221    Zr12    Cu91      2.69686       1   0   0           -1.06752 
    222    Zr13    Zr14      2.77545       0   0   0           -3.10591 
    223    Zr13    Cu15      2.81490       0   0   0           -0.85723 
    224    Zr13    Cu20      4.19095       0   0   0           -0.04177 
    225    Zr13    Cu21      4.18082       0   1  -1           -0.07758 
    226    Zr13    Zr29      3.16329       0   0   0           -1.31144 
    227    Zr13    Cu30      2.61270       0   0   0           -1.26563 
    228    Zr13    Zr32      2.99707       0   0   0           -1.98226 
    229    Zr13    Zr38      3.07037       0   0   0           -1.60181 
    230    Zr13    Zr50      4.07842       0   1   0           -0.24779 
    231    Zr13    Cu80      2.67788       1   0   0           -1.06857 
    232    Zr13    Zr81      3.90396       1   0   0           -0.31126 
    233    Zr13    Zr82      2.93740       1   0  -1           -2.23335 
    234    Zr13    Zr85      2.88999       1   0   0           -2.49460 
    235    Zr13    Cu86      2.41100       1   0   0           -1.92421 
    236    Zr13    Cu91      3.95583       1   0   0           -0.06760 
    237    Zr14    Cu15      2.99342       0   0   0           -0.58705 
    238    Zr14    Cu17      4.09148       0   0   0           -0.06663 
    239    Zr14    Cu18      2.60869       0   0   0           -1.24758 
    240    Zr14    Zr19      2.71907       0   0   0           -3.39864 
    241    Zr14    Cu20      3.02952       0   0   0           -0.53227 
    242    Zr14    Zr29      3.05887       0   0   0           -1.59811 
    243    Zr14    Cu30      3.44566       0   0   0           -0.22908 
    244    Zr14    Cu35      4.03772       0   0   0           -0.07049 
    245    Zr14    Cu36      2.51943       0   0   0           -1.58958 
    246    Zr14    Zr37      2.93034       0   0   0           -1.89569 
    247    Zr14    Zr38      2.63230       0   0   0           -4.21604 
    248    Zr14    Zr42      3.01374       0   0   0           -1.64887 
    249    Zr14    Cu43      3.55330       0   0   0           -0.15354 
    250    Zr14    Zr85      2.92564       1   0   0           -2.28695 
    251    Zr14    Cu86      2.82286       1   0   0           -0.81669 
    252    Zr14    Cu91      2.78027       1   0   0           -0.95329 
    253    Cu15    Zr16      2.56250       0   0  -1           -1.30168 
    254    Cu15    Cu18      4.02432       0   0   0           -0.01234 
    255    Cu15    Zr19      2.88858       0   0   0           -0.72952 
    256    Cu15    Cu20      2.35561       0   0   0           -0.63022 
    257    Cu15    Cu24      3.87466       0   0   0           -0.01381 
    258    Cu15    Zr38      2.54659       0   0   0           -1.40807 
    259    Cu15    Cu39      2.77750       0   0  -1           -0.27363 
    260    Cu15    Zr44      4.10983       0   0   0           -0.04280 
    261    Cu15    Cu80      3.95095       1   0   0           -0.03852 
    262    Cu15    Zr82      2.62199       1   0  -1           -1.17790 
    263    Cu15    Cu86      2.10073       1   0   0           -1.14109 
    264    Cu15    Zr87      2.51381       1   0  -1           -1.40573 
    265    Cu15    Al89      4.09694       1   0  -1           -0.06690 
    266    Cu15    Cu91      3.74657       1   0   0           -0.01695 
    267    Cu15    Cu93      3.86052       1   0   0           -0.02312 
    268    Zr16    Zr19      2.77909       0   0   1           -3.19895 
    269    Zr16    Cu20      2.82370       0   0   1           -0.78892 
    270    Zr16    Cu21      2.56924       0   0   0           -1.47142 
    271    Zr16    Cu22      2.60366       0   0   0           -1.06801 
    272    Zr16    Cu24      2.76063       0   0   1           -0.96351 
    273    Zr16    Zr38      3.97706       0   0   1           -0.28065 
    274    Zr16    Cu39      2.78668       0   0   0           -0.95383 
    275    Zr16    Zr40      3.47581       0   0   0           -0.60765 
    276    Zr16    Zr44      3.48764       0   0   1           -0.76680 
    277    Zr16    Cu45      2.52053       0   0   0           -1.66324 
    278    Zr16    Zr50      2.90041       0   0   1           -2.46518 
    279    Zr16    Zr76      4.18757       1  -1   0           -0.22129 
    280    Zr16    Cu86      4.15996       1   0   1           -0.04216 
    281    Zr16    Zr87      2.75551       1   0   0           -2.87892 
    282    Zr16    Zr88      4.16107       1   0   0           -0.13846 
    283    Zr16    Al89      2.82094       1   0   0           -2.16172 
    284    Zr16    Cu94      2.44243       1   0   0           -1.56397 
    285    Zr16   Zr100      3.14261       1   0   1           -1.40414 
    286    Cu17    Cu18      2.23183       0   0   0           -0.88689 
    287    Cu17    Cu22      2.37304       0   0   0           -0.32717 
    288    Cu17    Zr23      2.34621       0   0   0           -2.44653 
    289    Cu17    Cu24      4.16169       0   0   0           -0.02325 
    290    Cu17    Cu25      3.37332       0   0   0           -0.06452 
    291    Cu17    Cu36      3.54455       0   0   0           -0.03822 
    292    Cu17    Zr40      2.50072       0   0   0           -1.39662 
    293    Cu17    Zr42      2.66804       0   0   0           -1.16576 
    294    Cu17    Zr47      3.87435       0   0   0           -0.12149 
    295    Cu17    Zr76      4.13014       1  -1   0           -0.03345 
    296    Cu17    Cu78      4.02413       1  -1   0           -0.02486 
    297    Cu17    Zr83      4.16792       1   0   0           -0.04197 
    298    Cu17    Zr88      4.11167       1   0   0           -0.04682 
    299    Cu17    Al89      2.18353       1   0   0           -2.42770 
    300    Cu17    Zr90      2.50884       1   0   0           -1.28160 
    301    Cu17    Cu91      3.87557       1   0   0           -0.01874 
    302    Cu17    Cu92      3.93685       1   0   0           -0.01548 
    303    Cu17    Cu94      3.53056       1   0   0           -0.00310 
    304    Cu17    Zr96      2.72783       1   0   0           -0.72703 
    305    Cu17    Zr97      2.60647       1   0   0           -1.43988 
    306    Cu17    Cu98      4.09620       1   0   0           -0.02375 
    307    Cu18    Zr19      2.59562       0   0   0           -1.30861 
    308    Cu18    Cu20      2.31154       0   0   0           -0.80431 
    309    Cu18    Zr23      3.66143       0   0   0           -0.12355 
    310    Cu18    Cu24      2.48605       0   0   0           -0.41523 
    311    Cu18    Cu25      2.77135       0   0   0           -0.19800 
    312    Cu18    Cu36      3.57527       0   0   0           -0.05339 
    313    Cu18    Zr40      3.99006       0   0   0           -0.06347 
    314    Cu18    Zr42      2.49958       0   0   0           -1.41845 
    315    Cu18    Cu84      3.92678       1   0   0           -0.01626 
    316    Cu18    Cu86      3.70418       1   0   0           -0.01001 
    317    Cu18    Al89      4.00235       1   0   0           -0.04667 
    318    Cu18    Zr90      2.68585       1   0   0           -1.16463 
    319    Cu18    Cu91      2.35037       1   0   0           -0.69685 
    320    Cu18    Cu92      2.54152       1   0   0           -0.46028 
    321    Cu18    Cu93      3.91405       1   0   0           -0.04896 
    322    Cu18    Zr96      4.14718       1   0   0           -0.04965 
    323    Cu18    Zr97      2.45105       1   0   0           -1.90447 
    324    Cu18    Cu98      3.85232       1   0   0           -0.01566 
    325    Cu18   Zr100      4.11995       1   0   0           -0.05310 
    326    Zr19    Cu20      2.64555       0   0   0           -1.12259 
    327    Zr19    Cu21      3.94757       0   0  -1           -0.07933 
    328    Zr19    Cu24      2.39782       0   0   0           -2.01088 
    329    Zr19    Cu25      2.54614       0   0   0           -1.38414 
    330    Zr19    Zr37      3.97920       0   0   0           -0.29758 
    331    Zr19    Zr38      2.72933       0   0   0           -3.10099 
    332    Zr19    Cu39      3.55326       0   0  -1           -0.20704 
    333    Zr19    Zr42      2.59230       0   0   0           -4.75383 
    334    Zr19    Cu43      2.69873       0   0   0           -0.93645 
    335    Zr19    Zr44      2.77105       0   0   0           -3.01337 
    336    Zr19    Cu45      3.76420       0   0  -1           -0.10602 
    337    Zr19    Cu49      2.48098       0   0   0           -1.52273 
    338    Zr19    Zr50      2.88561       0   0   0           -2.42381 
    339    Zr19    Cu66      4.17647       0   0   0           -0.04526 
    340    Zr19    Cu71      4.13584       0   0   0           -0.05341 
    341    Zr19    Cu86      3.99834       1   0   0           -0.04082 
    342    Zr19    Cu91      4.08855       1   0   0           -0.03456 
    343    Zr19    Zr97      4.08930       1   0   0           -0.27594 
    344    Cu20    Cu21      3.88571       0   0  -1           -0.01104 
    345    Cu20    Cu24      2.18982       0   0   0           -0.89966 
    346    Cu20    Cu25      3.90896       0   0   0           -0.01973 
    347    Cu20    Zr38      4.09449       0   0   0           -0.06152 
    348    Cu20    Zr60      4.09379       1   0   0           -0.03812 
    349    Cu20    Zr65      4.05491       1   0   0           -0.03307 
    350    Cu20    Cu67      3.94570       1   0   0           -0.01033 
    351    Cu20    Cu86      2.24235       1   0   0           -0.80657 
    352    Cu20    Zr87      2.58361       1   0  -1           -1.37447 
    353    Cu20    Zr90      4.02193       1   0   0           -0.02289 
    354    Cu20    Cu91      2.28370       1   0   0           -0.80549 
    355    Cu20    Cu92      2.25127       1   0   0           -0.77321 
    356    Cu20    Cu93      2.32097       1   0   0           -0.68576 
    357    Cu20    Cu94      4.05629       1   0  -1           -0.02508 
    358    Cu20    Zr97      3.73486       1   0   0           -0.09743 
    359    Cu20    Cu99      3.92157       1   0   0           -0.02291 
    360    Cu20   Zr100      2.59442       1   0   0           -1.30903 
    361    Cu21    Cu22      2.96623       0   0   0           -0.17192 
    362    Cu21    Cu24      2.36309       0   0   1           -0.65147 
    363    Cu21    Cu25      3.76211       0   0   1           -0.01235 
    364    Cu21    Zr32      4.05278       0  -1   1           -0.07583 
    365    Cu21    Cu45      3.73957       0   0   0           -0.02368 
    366    Cu21    Zr50      2.37634       0   0   1           -2.19645 
    367    Cu21    Cu74      3.88195       1   0   1           -0.01443 
    368    Cu21    Zr76      2.57184       1  -1   0           -1.31289 
    369    Cu21    Cu80      4.09689       1  -1   1           -0.03983 
    370    Cu21    Zr81      2.57500       1  -1   1           -1.30347 
    371    Cu21    Zr82      4.10741       1  -1   0           -0.06299 
    372    Cu21    Al89      4.10854       1   0   0           -0.04014 
    373    Cu21    Cu94      2.28694       1   0   0           -0.92919 
    374    Cu21    Cu95      2.95850       1   0   0           -0.11627 
    375    Cu21    Cu99      3.49334       1   0   1           -0.04238 
    376    Cu21   Zr100      2.61841       1   0   1           -1.23162 
    377    Cu22    Zr23      2.57678       0   0   0           -1.38230 
    378    Cu22    Cu28      4.15570       0  -1   0           -0.02298 
    379    Cu22    Cu39      4.02831       0   0   0           -0.00576 
    380    Cu22    Zr40      2.58840       0   0   0           -1.03438 
    381    Cu22    Cu45      2.62118       0   0   0           -0.45363 
    382    Cu22    Zr47      3.44335       0   0   0           -0.23627 
    383    Cu22    Zr50      3.78226       0   0   1           -0.11909 
    384    Cu22    Zr76      2.54450       1  -1   0           -1.62279 
    385    Cu22    Cu78      4.00589       1  -1   0           -0.01082 
    386    Cu22    Zr88      3.96398       1   0   0           -0.03863 
    387    Cu22    Al89      2.21030       1   0   0           -2.56006 
    388    Cu22    Zr90      4.19159       1   0   0           -0.02986 
    389    Cu22    Cu94      2.11911       1   0   0           -0.73599 
    390    Cu22    Cu95      3.85190       1   0   0           -0.02944 
    391    Cu22    Zr96      2.92284       1   0   0           -0.47005 
    392    Zr23    Cu25      2.65378       0   0   0           -1.22508 
    393    Zr23    Cu28      2.62400       0  -1   0           -1.16986 
    394    Zr23    Zr29      3.55065       0  -1   0           -0.71441 
    395    Zr23    Zr40      3.45907       0   0   0           -0.76001 
    396    Zr23    Zr42      3.03881       0   0   0           -1.67245 
    397    Zr23    Zr47      2.93849       0   0   0           -2.08336 
    398    Zr23    Zr48      2.91222       0   0   0           -2.27710 
    399    Zr23    Zr76      3.36453       1  -1   0           -0.96842 
    400    Zr23    Cu78      2.84269       1  -1   0           -0.90784 
    401    Zr23    Al89      3.99036       1   0   0           -0.33246 
    402    Zr23    Zr96      3.36648       1   0   0           -0.87914 
    403    Zr23    Zr97      2.79833       1   0   0           -2.84309 
    404    Cu24    Cu25      2.22208       0   0   0           -0.88608 
    405    Cu24    Zr42      3.82673       0   0   0           -0.09741 
    406    Cu24    Cu49      3.84806       0   0   0           -0.01570 
    407    Cu24    Zr50      2.75943       0   0   0           -0.88699 
    408    Cu24    Zr81      4.10465       1  -1   0           -0.06027 
    409    Cu24    Zr87      3.98948       1   0  -1           -0.06794 