
     Program PWSCF v.6.2 (svn rev. 13949:13950) starts on 19Apr2019 at 18:51:20 

     This program is part of the open-source Quantum ESPRESSO suite
     for quantum simulation of materials; please cite
         "P. Giannozzi et al., J. Phys.:Condens. Matter 21 395502 (2009);
         "P. Giannozzi et al., J. Phys.:Condens. Matter 29 465901 (2017);
          URL http://www.quantum-espresso.org", 
     in publications or presentations arising from this work. More details at
     http://www.quantum-espresso.org/quote

     Parallel version (MPI & OpenMP), running on     192 processor cores
     Number of MPI processes:               192
     Threads/MPI process:                     1

     MPI processes distributed on     8 nodes
     K-points division:     npool     =       8
     R & G space division:  proc/nbgrp/npool/nimage =      24
     Waiting for input...
     Reading input from standard input

     Current dimensions of program PWSCF are:
     Max number of different atomic species (ntypx) = 10
     Max number of k-points (npk) =  40000
     Max angular momentum in pseudopotentials (lmaxx) =  3
               file Al.aryjr-1.0.0-ld1.UPF: wavefunction(s)  3S 3P renormalized
               file Cu.aryjr-1.0.0-ld1.UPF: wavefunction(s)  4S 3P 3D renormalized
               file Zr.aryjr-1.0.0-ld1.UPF: wavefunction(s)  4S 4P renormalized

     Subspace diagonalization in iterative solution of the eigenvalue problem:
     one sub-group per band group will be used
     scalapack distributed-memory algorithm (size of sub-group:  3*  3 procs)

 
     Parallelization info
     --------------------
     sticks:   dense  smooth     PW     G-vecs:    dense   smooth      PW
     Min         776     388    100                79800    28228    3693
     Max         777     389    102                79803    28231    3696
     Sum       18637    9329   2409              1915247   677493   88663
 

     Title: 
     Zr49Cu49Al2                                                                


     bravais-lattice index     =            0
     lattice parameter (alat)  =      20.4574  a.u.
     unit-cell volume          =    8561.5005 (a.u.)^3
     number of atoms/cell      =          100
     number of atomic types    =            3
     number of electrons       =      1525.00
     number of Kohn-Sham states=         1086
     kinetic-energy cutoff     =      70.0000  Ry
     charge density cutoff     =     560.0000  Ry
     convergence threshold     =      1.0E-06
     mixing beta               =       0.4000
     number of iterations used =            8  plain     mixing
     Exchange-correlation      =  SLA  PW   PBX  PBC ( 1  4  3  4 0 0)

     celldm(1)=  20.457378  celldm(2)=   0.000000  celldm(3)=   0.000000
     celldm(4)=   0.000000  celldm(5)=   0.000000  celldm(6)=   0.000000

     crystal axes: (cart. coord. in units of alat)
               a(1) = (   1.000000   0.000000   0.000000 )  
               a(2) = (   0.000000   1.000000   0.000000 )  
               a(3) = (   0.000000   0.000000   1.000000 )  

     reciprocal axes: (cart. coord. in units 2 pi/alat)
               b(1) = (  1.000000  0.000000  0.000000 )  
               b(2) = (  0.000000  1.000000  0.000000 )  
               b(3) = (  0.000000  0.000000  1.000000 )  


     PseudoPot. # 1 for Al read from file:
     /scratch/rmnvm/ary.junior/UPFs/Al.aryjr-1.0.0-ld1.UPF
     MD5 check sum: 23518be3108914e66f28d0b5ae5ea896
     Pseudo is Projector augmented-wave + core cor, Zval =  3.0
     Generated using "atomic" code by A. Dal Corso  v.5.3.0 svn rev. 11974
     Shape of augmentation charge: PSQ
     Using radial grid of 1135 points,  4 beta functions with: 
                l(1) =   0
                l(2) =   0
                l(3) =   1
                l(4) =   1
     Q(r) pseudized with 0 coefficients 


     PseudoPot. # 2 for Cu read from file:
     /scratch/rmnvm/ary.junior/UPFs/Cu.aryjr-1.0.0-ld1.UPF
     MD5 check sum: 9308548b6d8348cb0f7fa79efd90ef1e
     Pseudo is Projector augmented-wave + core cor, Zval = 19.0
     Generated using "atomic" code by A. Dal Corso  v.5.3.0 svn rev. 11974
     Shape of augmentation charge: PSQ
     Using radial grid of 1199 points,  6 beta functions with: 
                l(1) =   0
                l(2) =   0
                l(3) =   1
                l(4) =   1
                l(5) =   2
                l(6) =   2
     Q(r) pseudized with 0 coefficients 


     PseudoPot. # 3 for Zr read from file:
     /scratch/rmnvm/ary.junior/UPFs/Zr.aryjr-1.0.0-ld1.UPF
     MD5 check sum: 20f111a850f3481eb9ed9a4dbb9cca44
     Pseudo is Projector augmented-wave + core cor, Zval = 12.0
     Generated using "atomic" code by A. Dal Corso  v.5.3.0 svn rev. 11974
     Shape of augmentation charge: PSQ
     Using radial grid of 1225 points,  6 beta functions with: 
                l(1) =   0
                l(2) =   0
                l(3) =   1
                l(4) =   1
                l(5) =   2
                l(6) =   2
     Q(r) pseudized with 0 coefficients 


     atomic species   valence    mass     pseudopotential
        Al             3.00    26.98150     Al( 1.00)
        Cu            19.00    63.54630     Cu( 1.00)
        Zr            12.00    91.22400     Zr( 1.00)

     No symmetry found


                                    s                        frac. trans.

      isym =  1     identity                                     

 cryst.   s( 1) = (     1          0          0      )
                  (     0          1          0      )
                  (     0          0          1      )

 cart.    s( 1) = (  1.0000000  0.0000000  0.0000000 )
                  (  0.0000000  1.0000000  0.0000000 )
                  (  0.0000000  0.0000000  1.0000000 )


   Cartesian axes

     site n.     atom                  positions (alat units)
         1           Cu  tau(   1) = (   0.1532540   0.2277590   0.1567850  )
         2           Zr  tau(   2) = (   0.2632450  -0.0190070   0.1788030  )
         3           Cu  tau(   3) = (   0.1770600   0.1315620   0.3373750  )
         4           Cu  tau(   4) = (   0.1041000   0.0611130   0.5913870  )
         5           Zr  tau(   5) = (   0.0179050   0.0327190   0.7957000  )
         6           Cu  tau(   6) = (   0.2603280   0.0656340   0.7428210  )
         7           Cu  tau(   7) = (   0.1177750   0.1023710   0.9862360  )
         8           Cu  tau(   8) = (   0.2607600   0.3549830   0.0459350  )
         9           Zr  tau(   9) = (  -0.0132520   0.2717730   0.3065150  )
        10           Cu  tau(  10) = (   0.2185700   0.3285600   0.3368330  )
        11           Zr  tau(  11) = (   0.1152240   0.4699240   0.1643430  )
        12           Zr  tau(  12) = (   0.0615040   0.4952260   0.4343910  )
        13           Zr  tau(  13) = (   0.1385390   0.2523210   0.8065140  )
        14           Zr  tau(  14) = (   0.1772030   0.4605960   0.6620950  )
        15           Cu  tau(  15) = (   0.1140550   0.4794900   0.9306380  )
        16           Zr  tau(  16) = (   0.1178980   0.6997470   0.0172560  )
        17           Cu  tau(  17) = (   0.0775240   0.7324330   0.4191720  )
        18           Cu  tau(  18) = (   0.0595990   0.6651690   0.6132270  )
        19           Zr  tau(  19) = (   0.2258380   0.6737150   0.7857960  )
        20           Cu  tau(  20) = (  -0.0091150   0.6101890   0.8077750  )
        21           Cu  tau(  21) = (   0.0411810   0.9211880  -0.0202190  )
        22           Cu  tau(  22) = (   0.1181520   0.8230530   0.2237520  )
        23           Zr  tau(  23) = (   0.1762560   0.9250130   0.4308390  )
        24           Cu  tau(  24) = (   0.0470770   0.8041300   0.7956290  )
        25           Cu  tau(  25) = (   0.1929970   0.8760390   0.6704530  )
        26           Zr  tau(  26) = (   0.3771530   0.2235980   0.2105170  )
        27           Cu  tau(  27) = (   0.5030380   0.0370620   0.2382310  )
        28           Cu  tau(  28) = (   0.3667550   0.0675060   0.3843810  )
        29           Zr  tau(  29) = (   0.2658580   0.2188980   0.5456370  )
        30           Cu  tau(  30) = (   0.3727640   0.2269500   0.7541460  )
        31           Zr  tau(  31) = (   0.4909010   0.0266550   0.8215010  )
        32           Zr  tau(  32) = (   0.3344380   0.1538590   0.9755560  )
        33           Zr  tau(  33) = (   0.5010310   0.4176720   0.0356180  )
        34           Al  tau(  34) = (   0.3891260   0.4541170   0.2506940  )
        35           Cu  tau(  35) = (   0.4270120   0.3295000   0.4181220  )
        36           Cu  tau(  36) = (   0.2812900   0.4786180   0.4547210  )
        37           Zr  tau(  37) = (   0.4431220   0.4213950   0.6301280  )
        38           Zr  tau(  38) = (   0.3330890   0.4543610   0.8486030  )
        39           Cu  tau(  39) = (   0.3161030   0.5456970   0.0742360  )
        40           Zr  tau(  40) = (   0.2556010   0.6436620   0.3018270  )
        41           Zr  tau(  41) = (   0.4786970   0.5775920   0.4392130  )
        42           Zr  tau(  42) = (   0.2806530   0.6952180   0.5536880  )
        43           Cu  tau(  43) = (   0.4540980   0.6339770   0.6937910  )
        44           Zr  tau(  44) = (   0.4302580   0.6894230   0.9390530  )
        45           Cu  tau(  45) = (   0.3223560   0.7658970   0.1068750  )
        46           Zr  tau(  46) = (   0.4766140   0.9323300   0.0524910  )
        47           Zr  tau(  47) = (   0.4135570   0.8280610   0.3415760  )
        48           Zr  tau(  48) = (   0.3922520   0.9679630   0.5853350  )
        49           Cu  tau(  49) = (   0.3999990   0.8197080   0.7561930  )
        50           Zr  tau(  50) = (   0.2492660   0.9077680   0.9111820  )
        51           Zr  tau(  51) = (   0.5957130   0.1641180   0.0496730  )
        52           Zr  tau(  52) = (   0.7575530   0.0797000   0.2343880  )
        53           Cu  tau(  53) = (   0.5410490   0.1728210   0.3663910  )
        54           Zr  tau(  54) = (   0.5357240   0.1819230   0.5991130  )
        55           Zr  tau(  55) = (   0.6936450   0.1353580   0.7999840  )
        56           Cu  tau(  56) = (   0.6996980   0.4938770   0.1236250  )
        57           Zr  tau(  57) = (   0.6154380   0.3496160   0.2608670  )
        58           Cu  tau(  58) = (   0.6163860   0.3829110   0.4899580  )
        59           Zr  tau(  59) = (   0.7406390   0.3425790   0.6748370  )
        60           Zr  tau(  60) = (   0.7412480   0.3575700   0.9376560  )
        61           Cu  tau(  61) = (   0.5350970   0.2943340   0.8319010  )
        62           Zr  tau(  62) = (   0.5219300   0.6602630   0.1802780  )
        63           Cu  tau(  63) = (   0.6764360   0.5422660   0.3511770  )
        64           Cu  tau(  64) = (   0.6518880   0.7490820   0.3811960  )
        65           Zr  tau(  65) = (   0.6685970   0.5790940   0.6194550  )
        66           Cu  tau(  66) = (   0.5727900   0.5080700   0.8178100  )
        67           Cu  tau(  67) = (   0.6643170   0.6087910   0.9696280  )
        68           Cu  tau(  68) = (   0.6453030   0.7910700   0.0288590  )
        69           Cu  tau(  69) = (   0.6369180   0.8868360   0.2400110  )
        70           Zr  tau(  70) = (   0.6303260   0.9759980   0.4397490  )
        71           Cu  tau(  71) = (   0.5295050   0.7794890   0.5795060  )
        72           Cu  tau(  72) = (   0.6242650   0.9611470   0.6522980  )
        73           Zr  tau(  73) = (   0.6264570   0.7657160   0.7858100  )
        74           Cu  tau(  74) = (   0.6866730   0.9527310   0.9360050  )
        75           Cu  tau(  75) = (   0.7980740   0.2687160   0.1298460  )
        76           Zr  tau(  76) = (   1.0111800   0.0294580   0.1891070  )
        77           Zr  tau(  77) = (   0.7674370   0.2250570   0.4300980  )
        78           Cu  tau(  78) = (   0.9704410   0.0880180   0.4356580  )
        79           Zr  tau(  79) = (   0.8233740   0.0724900   0.6018010  )
        80           Cu  tau(  80) = (   0.8934150   0.2197080   0.8001380  )
        81           Zr  tau(  81) = (   0.8687050   0.0849730   0.9774930  )
        82           Zr  tau(  82) = (   0.9982840   0.2941060   0.0350030  )
        83           Zr  tau(  83) = (   0.8616490   0.4609810   0.2520130  )
        84           Cu  tau(  84) = (   0.8132930   0.4350980   0.4791560  )
        85           Zr  tau(  85) = (   0.9981660   0.2752820   0.5806030  )
        86           Cu  tau(  86) = (   0.9756890   0.4038440   0.8175500  )
        87           Zr  tau(  87) = (   0.9133460   0.5484550   0.0248790  )
        88           Zr  tau(  88) = (   0.7753420   0.6984470   0.1916040  )
        89           Al  tau(  89) = (   1.0048900   0.6548750   0.2477300  )
        90           Zr  tau(  90) = (   0.8636860   0.6537190   0.4614320  )
        91           Cu  tau(  91) = (   0.9239290   0.4981350   0.6420570  )
        92           Cu  tau(  92) = (   0.8484040   0.7178360   0.7012020  )
        93           Cu  tau(  93) = (   0.7838010   0.5560280   0.8199790  )
        94           Cu  tau(  94) = (   0.9491700   0.8012760   0.1273720  )
        95           Cu  tau(  95) = (   0.7960670   0.9101280   0.1001260  )
        96           Zr  tau(  96) = (   0.8820060   0.8729030   0.3447760  )
        97           Zr  tau(  97) = (   0.9756070   0.8735870   0.5854800  )
        98           Cu  tau(  98) = (   0.7438140   0.8240090   0.5722210  )
        99           Cu  tau(  99) = (   0.8036460   0.9168100   0.7614030  )
       100           Zr  tau( 100) = (   0.8574510   0.7776480   0.9154230  )

   Crystallographic axes

     site n.     atom                  positions (cryst. coord.)
         1           Cu  tau(   1) = (  0.1532540  0.2277590  0.1567850  )
         2           Zr  tau(   2) = (  0.2632450 -0.0190070  0.1788030  )
         3           Cu  tau(   3) = (  0.1770600  0.1315620  0.3373750  )
         4           Cu  tau(   4) = (  0.1041000  0.0611130  0.5913870  )
         5           Zr  tau(   5) = (  0.0179050  0.0327190  0.7957000  )
         6           Cu  tau(   6) = (  0.2603280  0.0656340  0.7428210  )
         7           Cu  tau(   7) = (  0.1177750  0.1023710  0.9862360  )
         8           Cu  tau(   8) = (  0.2607600  0.3549830  0.0459350  )
         9           Zr  tau(   9) = ( -0.0132520  0.2717730  0.3065150  )
        10           Cu  tau(  10) = (  0.2185700  0.3285600  0.3368330  )
        11           Zr  tau(  11) = (  0.1152240  0.4699240  0.1643430  )
        12           Zr  tau(  12) = (  0.0615040  0.4952260  0.4343910  )
        13           Zr  tau(  13) = (  0.1385390  0.2523210  0.8065140  )
        14           Zr  tau(  14) = (  0.1772030  0.4605960  0.6620950  )
        15           Cu  tau(  15) = (  0.1140550  0.4794900  0.9306380  )
        16           Zr  tau(  16) = (  0.1178980  0.6997470  0.0172560  )
        17           Cu  tau(  17) = (  0.0775240  0.7324330  0.4191720  )
        18           Cu  tau(  18) = (  0.0595990  0.6651690  0.6132270  )
        19           Zr  tau(  19) = (  0.2258380  0.6737150  0.7857960  )
        20           Cu  tau(  20) = ( -0.0091150  0.6101890  0.8077750  )
        21           Cu  tau(  21) = (  0.0411810  0.9211880 -0.0202190  )
        22           Cu  tau(  22) = (  0.1181520  0.8230530  0.2237520  )
        23           Zr  tau(  23) = (  0.1762560  0.9250130  0.4308390  )
        24           Cu  tau(  24) = (  0.0470770  0.8041300  0.7956290  )
        25           Cu  tau(  25) = (  0.1929970  0.8760390  0.6704530  )
        26           Zr  tau(  26) = (  0.3771530  0.2235980  0.2105170  )
        27           Cu  tau(  27) = (  0.5030380  0.0370620  0.2382310  )
        28           Cu  tau(  28) = (  0.3667550  0.0675060  0.3843810  )
        29           Zr  tau(  29) = (  0.2658580  0.2188980  0.5456370  )
        30           Cu  tau(  30) = (  0.3727640  0.2269500  0.7541460  )
        31           Zr  tau(  31) = (  0.4909010  0.0266550  0.8215010  )
        32           Zr  tau(  32) = (  0.3344380  0.1538590  0.9755560  )
        33           Zr  tau(  33) = (  0.5010310  0.4176720  0.0356180  )
        34           Al  tau(  34) = (  0.3891260  0.4541170  0.2506940  )
        35           Cu  tau(  35) = (  0.4270120  0.3295000  0.4181220  )
        36           Cu  tau(  36) = (  0.2812900  0.4786180  0.4547210  )
        37           Zr  tau(  37) = (  0.4431220  0.4213950  0.6301280  )
        38           Zr  tau(  38) = (  0.3330890  0.4543610  0.8486030  )
        39           Cu  tau(  39) = (  0.3161030  0.5456970  0.0742360  )
        40           Zr  tau(  40) = (  0.2556010  0.6436620  0.3018270  )
        41           Zr  tau(  41) = (  0.4786970  0.5775920  0.4392130  )
        42           Zr  tau(  42) = (  0.2806530  0.6952180  0.5536880  )
        43           Cu  tau(  43) = (  0.4540980  0.6339770  0.6937910  )
        44           Zr  tau(  44) = (  0.4302580  0.6894230  0.9390530  )
        45           Cu  tau(  45) = (  0.3223560  0.7658970  0.1068750  )
        46           Zr  tau(  46) = (  0.4766140  0.9323300  0.0524910  )
        47           Zr  tau(  47) = (  0.4135570  0.8280610  0.3415760  )
        48           Zr  tau(  48) = (  0.3922520  0.9679630  0.5853350  )
        49           Cu  tau(  49) = (  0.3999990  0.8197080  0.7561930  )
        50           Zr  tau(  50) = (  0.2492660  0.9077680  0.9111820  )
        51           Zr  tau(  51) = (  0.5957130  0.1641180  0.0496730  )
        52           Zr  tau(  52) = (  0.7575530  0.0797000  0.2343880  )
        53           Cu  tau(  53) = (  0.5410490  0.1728210  0.3663910  )
        54           Zr  tau(  54) = (  0.5357240  0.1819230  0.5991130  )
        55           Zr  tau(  55) = (  0.6936450  0.1353580  0.7999840  )
        56           Cu  tau(  56) = (  0.6996980  0.4938770  0.1236250  )
        57           Zr  tau(  57) = (  0.6154380  0.3496160  0.2608670  )
        58           Cu  tau(  58) = (  0.6163860  0.3829110  0.4899580  )
        59           Zr  tau(  59) = (  0.7406390  0.3425790  0.6748370  )
        60           Zr  tau(  60) = (  0.7412480  0.3575700  0.9376560  )
        61           Cu  tau(  61) = (  0.5350970  0.2943340  0.8319010  )
        62           Zr  tau(  62) = (  0.5219300  0.6602630  0.1802780  )
        63           Cu  tau(  63) = (  0.6764360  0.5422660  0.3511770  )
        64           Cu  tau(  64) = (  0.6518880  0.7490820  0.3811960  )
        65           Zr  tau(  65) = (  0.6685970  0.5790940  0.6194550  )
        66           Cu  tau(  66) = (  0.5727900  0.5080700  0.8178100  )
        67           Cu  tau(  67) = (  0.6643170  0.6087910  0.9696280  )
        68           Cu  tau(  68) = (  0.6453030  0.7910700  0.0288590  )
        69           Cu  tau(  69) = (  0.6369180  0.8868360  0.2400110  )
        70           Zr  tau(  70) = (  0.6303260  0.9759980  0.4397490  )
        71           Cu  tau(  71) = (  0.5295050  0.7794890  0.5795060  )
        72           Cu  tau(  72) = (  0.6242650  0.9611470  0.6522980  )
        73           Zr  tau(  73) = (  0.6264570  0.7657160  0.7858100  )
        74           Cu  tau(  74) = (  0.6866730  0.9527310  0.9360050  )
        75           Cu  tau(  75) = (  0.7980740  0.2687160  0.1298460  )
        76           Zr  tau(  76) = (  1.0111800  0.0294580  0.1891070  )
        77           Zr  tau(  77) = (  0.7674370  0.2250570  0.4300980  )
        78           Cu  tau(  78) = (  0.9704410  0.0880180  0.4356580  )
        79           Zr  tau(  79) = (  0.8233740  0.0724900  0.6018010  )
        80           Cu  tau(  80) = (  0.8934150  0.2197080  0.8001380  )
        81           Zr  tau(  81) = (  0.8687050  0.0849730  0.9774930  )
        82           Zr  tau(  82) = (  0.9982840  0.2941060  0.0350030  )
        83           Zr  tau(  83) = (  0.8616490  0.4609810  0.2520130  )
        84           Cu  tau(  84) = (  0.8132930  0.4350980  0.4791560  )
        85           Zr  tau(  85) = (  0.9981660  0.2752820  0.5806030  )
        86           Cu  tau(  86) = (  0.9756890  0.4038440  0.8175500  )
        87           Zr  tau(  87) = (  0.9133460  0.5484550  0.0248790  )
        88           Zr  tau(  88) = (  0.7753420  0.6984470  0.1916040  )
        89           Al  tau(  89) = (  1.0048900  0.6548750  0.2477300  )
        90           Zr  tau(  90) = (  0.8636860  0.6537190  0.4614320  )
        91           Cu  tau(  91) = (  0.9239290  0.4981350  0.6420570  )
        92           Cu  tau(  92) = (  0.8484040  0.7178360  0.7012020  )
        93           Cu  tau(  93) = (  0.7838010  0.5560280  0.8199790  )
        94           Cu  tau(  94) = (  0.9491700  0.8012760  0.1273720  )
        95           Cu  tau(  95) = (  0.7960670  0.9101280  0.1001260  )
        96           Zr  tau(  96) = (  0.8820060  0.8729030  0.3447760  )
        97           Zr  tau(  97) = (  0.9756070  0.8735870  0.5854800  )
        98           Cu  tau(  98) = (  0.7438140  0.8240090  0.5722210  )
        99           Cu  tau(  99) = (  0.8036460  0.9168100  0.7614030  )
       100           Zr  tau( 100) = (  0.8574510  0.7776480  0.9154230  )

     number of k points=     8  Fermi-Dirac smearing, width (Ry)=  0.0080
                       cart. coord. in units 2pi/alat
        k(    1) = (   0.2500000   0.2500000   0.2500000), wk =   0.2500000
        k(    2) = (   0.2500000   0.2500000  -0.2500000), wk =   0.2500000
        k(    3) = (   0.2500000  -0.2500000   0.2500000), wk =   0.2500000
        k(    4) = (   0.2500000  -0.2500000  -0.2500000), wk =   0.2500000
        k(    5) = (  -0.2500000   0.2500000   0.2500000), wk =   0.2500000
        k(    6) = (  -0.2500000   0.2500000  -0.2500000), wk =   0.2500000
        k(    7) = (  -0.2500000  -0.2500000   0.2500000), wk =   0.2500000
        k(    8) = (  -0.2500000  -0.2500000  -0.2500000), wk =   0.2500000

                       cryst. coord.
        k(    1) = (   0.2500000   0.2500000   0.2500000), wk =   0.2500000
        k(    2) = (   0.2500000   0.2500000  -0.2500000), wk =   0.2500000
        k(    3) = (   0.2500000  -0.2500000   0.2500000), wk =   0.2500000
        k(    4) = (   0.2500000  -0.2500000  -0.2500000), wk =   0.2500000
        k(    5) = (  -0.2500000   0.2500000   0.2500000), wk =   0.2500000
        k(    6) = (  -0.2500000   0.2500000  -0.2500000), wk =   0.2500000
        k(    7) = (  -0.2500000  -0.2500000   0.2500000), wk =   0.2500000
        k(    8) = (  -0.2500000  -0.2500000  -0.2500000), wk =   0.2500000

     Dense  grid:  1915247 G-vectors     FFT dimensions: ( 160, 160, 160)

     Smooth grid:   677493 G-vectors     FFT dimensions: ( 120, 120, 120)

     Dynamical RAM for                 wfc:      58.46 MB

     Dynamical RAM for     wfc (w. buffer):      58.46 MB

     Dynamical RAM for           str. fact:       3.65 MB

     Dynamical RAM for           local pot:       0.00 MB

     Dynamical RAM for          nlocal pot:      95.82 MB

     Dynamical RAM for                qrad:      18.52 MB

     Dynamical RAM for          rho,v,vnew:       7.75 MB

     Dynamical RAM for               rhoin:       2.58 MB

     Dynamical RAM for            rho*nmix:      19.48 MB

     Dynamical RAM for           G-vectors:       4.78 MB

     Dynamical RAM for          h,s,v(r/c):      95.98 MB

     Dynamical RAM for          <psi|beta>:      29.50 MB

     Dynamical RAM for                 psi:     233.85 MB

     Dynamical RAM for                hpsi:     233.85 MB

     Dynamical RAM for                spsi:     233.85 MB

     Dynamical RAM for      wfcinit/wfcrot:     151.69 MB

     Dynamical RAM for           addusdens:     286.16 MB

     Dynamical RAM for          addusforce:     590.36 MB

     Estimated static dynamical RAM per process >     222.77 MB

     Estimated max dynamical RAM per process >       1.03 GB

     Estimated total dynamical RAM >     196.84 GB

     Initial potential from superposition of free atoms

     starting charge 1524.87645, renormalised to 1525.00000
     Starting wfc are 1135 randomized atomic wfcs
     Checking if some PAW data can be deallocated... 
       PAW data deallocated on  188 nodes for type:  1
       PAW data deallocated on   99 nodes for type:  2
       PAW data deallocated on   97 nodes for type:  3

     total cpu time spent up to now is       26.8 secs

     Self-consistent Calculation

     iteration #  1     ecut=    70.00 Ry     beta= 0.40
     Davidson diagonalization with overlap
     ethr =  1.00E-02,  avg # of iterations =  4.0

     total cpu time spent up to now is      200.6 secs

     total energy              =  -38823.83453401 Ry
     Harris-Foulkes estimate   =  -39000.61406060 Ry
     estimated scf accuracy    <     287.09984346 Ry

     iteration #  2     ecut=    70.00 Ry     beta= 0.40
     Davidson diagonalization with overlap
     ethr =  1.00E-02,  avg # of iterations =  3.0

     total cpu time spent up to now is      386.9 secs

     total energy              =  -38861.01620529 Ry
     Harris-Foulkes estimate   =  -39180.78362008 Ry
     estimated scf accuracy    <    1555.33009984 Ry

     iteration #  3     ecut=    70.00 Ry     beta= 0.40
     Davidson diagonalization with overlap
     ethr =  1.00E-02,  avg # of iterations =  3.0

     total cpu time spent up to now is      519.4 secs

     total energy              =  -38940.48387393 Ry
     Harris-Foulkes estimate   =  -39057.78977557 Ry
     estimated scf accuracy    <     875.21993611 Ry

     iteration #  4     ecut=    70.00 Ry     beta= 0.40
     Davidson diagonalization with overlap
     ethr =  1.00E-02,  avg # of iterations =  3.0

     total cpu time spent up to now is      623.9 secs

     total energy              =  -38983.21138717 Ry
     Harris-Foulkes estimate   =  -39005.02556917 Ry
     estimated scf accuracy    <     153.21324019 Ry

     iteration #  5     ecut=    70.00 Ry     beta= 0.40
     Davidson diagonalization with overlap
     ethr =  1.00E-02,  avg # of iterations =  1.0

     total cpu time spent up to now is      694.8 secs

     total energy              =  -38986.44415941 Ry
     Harris-Foulkes estimate   =  -38992.91541513 Ry
     estimated scf accuracy    <      73.83986352 Ry

     iteration #  6     ecut=    70.00 Ry     beta= 0.40
     Davidson diagonalization with overlap
     ethr =  4.84E-03,  avg # of iterations =  1.0

     total cpu time spent up to now is      765.5 secs

     total energy              =  -38985.67409009 Ry
     Harris-Foulkes estimate   =  -38989.77435540 Ry
     estimated scf accuracy    <      54.25766055 Ry

     iteration #  7     ecut=    70.00 Ry     beta= 0.40
     Davidson diagonalization with overlap
     ethr =  3.56E-03,  avg # of iterations =  1.0

     total cpu time spent up to now is      836.7 secs

     total energy              =  -38983.94968308 Ry
     Harris-Foulkes estimate   =  -38986.96268361 Ry
     estimated scf accuracy    <      25.47961229 Ry

     iteration #  8     ecut=    70.00 Ry     beta= 0.40
     Davidson diagonalization with overlap
     ethr =  1.67E-03,  avg # of iterations =  1.0

     total cpu time spent up to now is      907.5 secs

     total energy              =  -38983.13050686 Ry
     Harris-Foulkes estimate   =  -38984.96365140 Ry
     estimated scf accuracy    <      17.60912171 Ry

     iteration #  9     ecut=    70.00 Ry     beta= 0.40
     Davidson diagonalization with overlap
     ethr =  1.15E-03,  avg # of iterations =  1.0

     total cpu time spent up to now is      978.2 secs

     total energy              =  -38983.13728722 Ry
     Harris-Foulkes estimate   =  -38983.94268729 Ry
     estimated scf accuracy    <       6.39041187 Ry

     iteration # 10     ecut=    70.00 Ry     beta= 0.40
     Davidson diagonalization with overlap
     ethr =  4.19E-04,  avg # of iterations =  3.8

     total cpu time spent up to now is     1079.7 secs

     total energy              =  -38983.03411989 Ry
     Harris-Foulkes estimate   =  -38983.51941524 Ry
     estimated scf accuracy    <       1.72817586 Ry

     iteration # 11     ecut=    70.00 Ry     beta= 0.40
     Davidson diagonalization with overlap
     ethr =  1.13E-04,  avg # of iterations =  5.4

     total cpu time spent up to now is     1219.1 secs

     total energy              =  -38983.10876282 Ry
     Harris-Foulkes estimate   =  -38983.60668122 Ry
     estimated scf accuracy    <       3.91542520 Ry

     iteration # 12     ecut=    70.00 Ry     beta= 0.40
     Davidson diagonalization with overlap
     ethr =  1.13E-04,  avg # of iterations =  3.2

     total cpu time spent up to now is     1322.2 secs

     total energy              =  -38983.21483583 Ry
     Harris-Foulkes estimate   =  -38983.47869989 Ry
     estimated scf accuracy    <       2.86208314 Ry

     iteration # 13     ecut=    70.00 Ry     beta= 0.40
     Davidson diagonalization with overlap
     ethr =  1.13E-04,  avg # of iterations =  2.2

     total cpu time spent up to now is     1411.9 secs

     total energy              =  -38983.30352582 Ry
     Harris-Foulkes estimate   =  -38983.41517955 Ry
     estimated scf accuracy    <       1.05027557 Ry

     iteration # 14     ecut=    70.00 Ry     beta= 0.40
     Davidson diagonalization with overlap
     ethr =  6.89E-05,  avg # of iterations =  1.0

     total cpu time spent up to now is     1482.7 secs

     total energy              =  -38983.34416337 Ry
     Harris-Foulkes estimate   =  -38983.38096894 Ry
     estimated scf accuracy    <       0.31377400 Ry

     iteration # 15     ecut=    70.00 Ry     beta= 0.40
     Davidson diagonalization with overlap
     ethr =  2.06E-05,  avg # of iterations =  2.0

     total cpu time spent up to now is     1564.4 secs

     total energy              =  -38983.35294541 Ry
     Harris-Foulkes estimate   =  -38983.37331914 Ry
     estimated scf accuracy    <       0.24808209 Ry

     iteration # 16     ecut=    70.00 Ry     beta= 0.40
     Davidson diagonalization with overlap
     ethr =  1.63E-05,  avg # of iterations =  1.1

     total cpu time spent up to now is     1643.0 secs

     total energy              =  -38983.35927928 Ry
     Harris-Foulkes estimate   =  -38983.36831338 Ry
     estimated scf accuracy    <       0.08153967 Ry

     iteration # 17     ecut=    70.00 Ry     beta= 0.40
     Davidson diagonalization with overlap
     ethr =  5.35E-06,  avg # of iterations =  4.5

     total cpu time spent up to now is     1817.4 secs

     total energy              =  -38983.35921344 Ry
     Harris-Foulkes estimate   =  -38983.36875307 Ry
     estimated scf accuracy    <       0.11131382 Ry

     iteration # 18     ecut=    70.00 Ry     beta= 0.40
     Davidson diagonalization with overlap
     ethr =  5.35E-06,  avg # of iterations =  2.2

     total cpu time spent up to now is     1908.2 secs

     total energy              =  -38983.36097777 Ry
     Harris-Foulkes estimate   =  -38983.36748669 Ry
     estimated scf accuracy    <       0.07604744 Ry

     iteration # 19     ecut=    70.00 Ry     beta= 0.40
     Davidson diagonalization with overlap
     ethr =  4.99E-06,  avg # of iterations =  1.2

     total cpu time spent up to now is     1988.2 secs

     total energy              =  -38983.36265878 Ry
     Harris-Foulkes estimate   =  -38983.36579350 Ry
     estimated scf accuracy    <       0.03206042 Ry

     iteration # 20     ecut=    70.00 Ry     beta= 0.40
     Davidson diagonalization with overlap
     ethr =  2.10E-06,  avg # of iterations =  4.0

     total cpu time spent up to now is     2136.4 secs

     total energy              =  -38983.36346206 Ry
     Harris-Foulkes estimate   =  -38983.36556937 Ry
     estimated scf accuracy    <       0.02615064 Ry

     iteration # 21     ecut=    70.00 Ry     beta= 0.40
     Davidson diagonalization with overlap
     ethr =  1.71E-06,  avg # of iterations =  1.4

     total cpu time spent up to now is     2215.8 secs

     total energy              =  -38983.36393463 Ry
     Harris-Foulkes estimate   =  -38983.36518806 Ry
     estimated scf accuracy    <       0.00872694 Ry

     iteration # 22     ecut=    70.00 Ry     beta= 0.40
     Davidson diagonalization with overlap
     ethr =  5.72E-07,  avg # of iterations =  1.0

     total cpu time spent up to now is     2286.6 secs

     total energy              =  -38983.36413573 Ry
     Harris-Foulkes estimate   =  -38983.36498067 Ry
     estimated scf accuracy    <       0.00769465 Ry

     iteration # 23     ecut=    70.00 Ry     beta= 0.40
     Davidson diagonalization with overlap
     ethr =  5.05E-07,  avg # of iterations =  1.0

     total cpu time spent up to now is     2357.6 secs

     total energy              =  -38983.36412354 Ry
     Harris-Foulkes estimate   =  -38983.36504237 Ry
     estimated scf accuracy    <       0.01077781 Ry

     iteration # 24     ecut=    70.00 Ry     beta= 0.40
     Davidson diagonalization with overlap
     ethr =  5.05E-07,  avg # of iterations =  1.0

     total cpu time spent up to now is     2428.4 secs

     total energy              =  -38983.36418473 Ry
     Harris-Foulkes estimate   =  -38983.36500788 Ry
     estimated scf accuracy    <       0.00776751 Ry

     iteration # 25     ecut=    70.00 Ry     beta= 0.40
     Davidson diagonalization with overlap
     ethr =  5.05E-07,  avg # of iterations =  1.0

     total cpu time spent up to now is     2499.0 secs

     total energy              =  -38983.36434481 Ry
     Harris-Foulkes estimate   =  -38983.36489459 Ry
     estimated scf accuracy    <       0.00650281 Ry

     iteration # 26     ecut=    70.00 Ry     beta= 0.40
     Davidson diagonalization with overlap
     ethr =  4.26E-07,  avg # of iterations =  1.0

     total cpu time spent up to now is     2569.7 secs

     total energy              =  -38983.36451097 Ry
     Harris-Foulkes estimate   =  -38983.36478223 Ry
     estimated scf accuracy    <       0.00318531 Ry

     iteration # 27     ecut=    70.00 Ry     beta= 0.40
     Davidson diagonalization with overlap
     ethr =  2.09E-07,  avg # of iterations =  1.0

     total cpu time spent up to now is     2640.5 secs

     total energy              =  -38983.36456339 Ry
     Harris-Foulkes estimate   =  -38983.36473922 Ry
     estimated scf accuracy    <       0.00202062 Ry

     iteration # 28     ecut=    70.00 Ry     beta= 0.40
     Davidson diagonalization with overlap
     ethr =  1.32E-07,  avg # of iterations =  1.0

     total cpu time spent up to now is     2711.3 secs

     total energy              =  -38983.36460261 Ry
     Harris-Foulkes estimate   =  -38983.36469983 Ry
     estimated scf accuracy    <       0.00096710 Ry

     iteration # 29     ecut=    70.00 Ry     beta= 0.40
     Davidson diagonalization with overlap
     ethr =  6.34E-08,  avg # of iterations =  1.0

     total cpu time spent up to now is     2782.0 secs

     total energy              =  -38983.36459292 Ry
     Harris-Foulkes estimate   =  -38983.36471536 Ry
     estimated scf accuracy    <       0.00146908 Ry

     iteration # 30     ecut=    70.00 Ry     beta= 0.40
     Davidson diagonalization with overlap
     ethr =  6.34E-08,  avg # of iterations =  1.0

     total cpu time spent up to now is     2852.7 secs

     total energy              =  -38983.36461951 Ry
     Harris-Foulkes estimate   =  -38983.36470502 Ry
     estimated scf accuracy    <       0.00115533 Ry

     iteration # 31     ecut=    70.00 Ry     beta= 0.40
     Davidson diagonalization with overlap
     ethr =  6.34E-08,  avg # of iterations =  1.0

     total cpu time spent up to now is     2923.3 secs

     total energy              =  -38983.36465243 Ry
     Harris-Foulkes estimate   =  -38983.36467838 Ry
     estimated scf accuracy    <       0.00022506 Ry

     iteration # 32     ecut=    70.00 Ry     beta= 0.40
     Davidson diagonalization with overlap
     ethr =  1.48E-08,  avg # of iterations =  1.0

     total cpu time spent up to now is     2993.9 secs

     total energy              =  -38983.36465946 Ry
     Harris-Foulkes estimate   =  -38983.36467345 Ry
     estimated scf accuracy    <       0.00011684 Ry

     iteration # 33     ecut=    70.00 Ry     beta= 0.40
     Davidson diagonalization with overlap
     ethr =  7.66E-09,  avg # of iterations =  1.0

     total cpu time spent up to now is     3064.7 secs

     total energy              =  -38983.36465901 Ry
     Harris-Foulkes estimate   =  -38983.36467586 Ry
     estimated scf accuracy    <       0.00019703 Ry

     iteration # 34     ecut=    70.00 Ry     beta= 0.40
     Davidson diagonalization with overlap
     ethr =  7.66E-09,  avg # of iterations =  1.0

     total cpu time spent up to now is     3135.7 secs

     total energy              =  -38983.36466034 Ry
     Harris-Foulkes estimate   =  -38983.36467556 Ry
     estimated scf accuracy    <       0.00014542 Ry

     iteration # 35     ecut=    70.00 Ry     beta= 0.40
     Davidson diagonalization with overlap
     ethr =  7.66E-09,  avg # of iterations =  1.0

     total cpu time spent up to now is     3206.4 secs

     total energy              =  -38983.36465752 Ry
     Harris-Foulkes estimate   =  -38983.36467871 Ry
     estimated scf accuracy    <       0.00024985 Ry

     iteration # 36     ecut=    70.00 Ry     beta= 0.40
     Davidson diagonalization with overlap
     ethr =  7.66E-09,  avg # of iterations =  1.0

     total cpu time spent up to now is     3277.4 secs

     total energy              =  -38983.36466333 Ry
     Harris-Foulkes estimate   =  -38983.36467513 Ry
     estimated scf accuracy    <       0.00014861 Ry

     iteration # 37     ecut=    70.00 Ry     beta= 0.40
     Davidson diagonalization with overlap
     ethr =  7.66E-09,  avg # of iterations =  1.0

     total cpu time spent up to now is     3348.1 secs

     total energy              =  -38983.36466647 Ry
     Harris-Foulkes estimate   =  -38983.36467241 Ry
     estimated scf accuracy    <       0.00007121 Ry

     iteration # 38     ecut=    70.00 Ry     beta= 0.40
     Davidson diagonalization with overlap
     ethr =  4.67E-09,  avg # of iterations =  1.0

     total cpu time spent up to now is     3418.8 secs

     total energy              =  -38983.36466820 Ry
     Harris-Foulkes estimate   =  -38983.36467119 Ry
     estimated scf accuracy    <       0.00003177 Ry

     iteration # 39     ecut=    70.00 Ry     beta= 0.40
     Davidson diagonalization with overlap
     ethr =  2.08E-09,  avg # of iterations =  1.0

     total cpu time spent up to now is     3489.4 secs

     total energy              =  -38983.36466701 Ry
     Harris-Foulkes estimate   =  -38983.36467257 Ry
     estimated scf accuracy    <       0.00006943 Ry

     iteration # 40     ecut=    70.00 Ry     beta= 0.40
     Davidson diagonalization with overlap
     ethr =  2.08E-09,  avg # of iterations =  1.0

     total cpu time spent up to now is     3559.9 secs

     total energy              =  -38983.36466799 Ry
     Harris-Foulkes estimate   =  -38983.36467225 Ry
     estimated scf accuracy    <       0.00005856 Ry

     iteration # 41     ecut=    70.00 Ry     beta= 0.40
     Davidson diagonalization with overlap
     ethr =  2.08E-09,  avg # of iterations =  1.0

     total cpu time spent up to now is     3630.4 secs

     total energy              =  -38983.36466967 Ry
     Harris-Foulkes estimate   =  -38983.36467083 Ry
     estimated scf accuracy    <       0.00001172 Ry

     iteration # 42     ecut=    70.00 Ry     beta= 0.40
     Davidson diagonalization with overlap
     ethr =  7.68E-10,  avg # of iterations =  1.0

     total cpu time spent up to now is     3701.0 secs

     total energy              =  -38983.36467013 Ry
     Harris-Foulkes estimate   =  -38983.36467064 Ry
     estimated scf accuracy    <       0.00000530 Ry

     iteration # 43     ecut=    70.00 Ry     beta= 0.40
     Davidson diagonalization with overlap
     ethr =  3.48E-10,  avg # of iterations =  1.0

     total cpu time spent up to now is     3771.4 secs

     total energy              =  -38983.36467020 Ry
     Harris-Foulkes estimate   =  -38983.36467073 Ry
     estimated scf accuracy    <       0.00000598 Ry

     iteration # 44     ecut=    70.00 Ry     beta= 0.40
     Davidson diagonalization with overlap
     ethr =  3.48E-10,  avg # of iterations =  1.0

     total cpu time spent up to now is     3842.2 secs

     total energy              =  -38983.36467034 Ry
     Harris-Foulkes estimate   =  -38983.36467074 Ry
     estimated scf accuracy    <       0.00000451 Ry

     iteration # 45     ecut=    70.00 Ry     beta= 0.40
     Davidson diagonalization with overlap
     ethr =  2.96E-10,  avg # of iterations =  1.0

     total cpu time spent up to now is     3912.7 secs

     total energy              =  -38983.36467027 Ry
     Harris-Foulkes estimate   =  -38983.36467086 Ry
     estimated scf accuracy    <       0.00000702 Ry

     iteration # 46     ecut=    70.00 Ry     beta= 0.40
     Davidson diagonalization with overlap
     ethr =  2.96E-10,  avg # of iterations =  1.0

     total cpu time spent up to now is     3983.1 secs

     total energy              =  -38983.36467035 Ry
     Harris-Foulkes estimate   =  -38983.36467084 Ry
     estimated scf accuracy    <       0.00000614 Ry

     iteration # 47     ecut=    70.00 Ry     beta= 0.40
     Davidson diagonalization with overlap
     ethr =  2.96E-10,  avg # of iterations =  1.0

     total cpu time spent up to now is     4053.6 secs

     total energy              =  -38983.36467045 Ry
     Harris-Foulkes estimate   =  -38983.36467077 Ry
     estimated scf accuracy    <       0.00000440 Ry

     iteration # 48     ecut=    70.00 Ry     beta= 0.40
     Davidson diagonalization with overlap
     ethr =  2.89E-10,  avg # of iterations =  1.0

     total cpu time spent up to now is     4124.0 secs

     total energy              =  -38983.36467056 Ry
     Harris-Foulkes estimate   =  -38983.36467072 Ry
     estimated scf accuracy    <       0.00000210 Ry

     iteration # 49     ecut=    70.00 Ry     beta= 0.40
     Davidson diagonalization with overlap
     ethr =  1.38E-10,  avg # of iterations =  1.0

     total cpu time spent up to now is     4194.3 secs

     total energy              =  -38983.36467057 Ry
     Harris-Foulkes estimate   =  -38983.36467076 Ry
     estimated scf accuracy    <       0.00000265 Ry

     iteration # 50     ecut=    70.00 Ry     beta= 0.40
     Davidson diagonalization with overlap
     ethr =  1.38E-10,  avg # of iterations =  1.0

     total cpu time spent up to now is     4264.7 secs

     total energy              =  -38983.36467058 Ry
     Harris-Foulkes estimate   =  -38983.36467077 Ry
     estimated scf accuracy    <       0.00000259 Ry

     iteration # 51     ecut=    70.00 Ry     beta= 0.40
     Davidson diagonalization with overlap
     ethr =  1.38E-10,  avg # of iterations =  1.0

     total cpu time spent up to now is     4335.6 secs

     End of self-consistent calculation

          k = 0.2500 0.2500 0.2500 ( 84604 PWs)   bands (ev):

   -93.2422 -93.1439 -93.0356 -93.0331 -93.0237 -93.0101 -92.9946 -92.9756
   -92.9601 -92.9572 -92.9311 -92.9198 -92.8991 -92.8913 -92.8866 -92.8815
   -92.8745 -92.8718 -92.8542 -92.8511 -92.8350 -92.8329 -92.8318 -92.8311
   -92.8295 -92.8254 -92.7997 -92.7760 -92.7428 -92.7427 -92.7425 -92.6998
   -92.6965 -92.6816 -92.6776 -92.6259 -92.6253 -92.6216 -92.6112 -92.6022
   -92.5724 -92.5601 -92.5502 -92.5305 -92.5216 -92.5093 -92.5039 -92.4406
   -92.4116 -50.7232 -50.6404 -50.6060 -50.5403 -50.5277 -50.4920 -50.4859
   -50.4653 -50.4572 -50.4409 -50.4284 -50.4206 -50.4178 -50.4096 -50.3962
   -50.3871 -50.3849 -50.3725 -50.3692 -50.3558 -50.3547 -50.3460 -50.3405
   -50.3379 -50.3372 -50.3310 -50.3260 -50.3255 -50.3191 -50.3139 -50.3132
   -50.3096 -50.3057 -50.3006 -50.3001 -50.2972 -50.2948 -50.2945 -50.2876
   -50.2814 -50.2767 -50.2750 -50.2729 -50.2593 -50.2474 -50.2456 -50.2342
   -50.2337 -50.2329 -50.2274 -50.2228 -50.2205 -50.2193 -50.2185 -50.2170
   -50.2072 -50.2048 -50.2044 -50.1939 -50.1874 -50.1850 -50.1822 -50.1820
   -50.1749 -50.1746 -50.1654 -50.1647 -50.1531 -50.1527 -50.1520 -50.1516
   -50.1472 -50.1460 -50.1443 -50.1441 -50.1383 -50.1349 -50.1326 -50.1303
   -50.1218 -50.1212 -50.1117 -50.1089 -50.1067 -50.1045 -50.1042 -50.0939
   -50.0890 -50.0845 -50.0786 -50.0757 -50.0695 -50.0665 -50.0595 -50.0434
   -50.0434 -50.0428 -50.0274 -50.0217 -50.0205 -50.0185 -50.0128 -50.0113
   -50.0080 -50.0066 -49.9986 -49.9981 -49.9942 -49.9915 -49.9758 -49.9710
   -49.9653 -49.9640 -49.9539 -49.9520 -49.9489 -49.9412 -49.9398 -49.9282
   -49.9255 -49.9237 -49.9203 -49.9177 -49.9081 -49.8958 -49.8878 -49.8876
   -49.8803 -49.8768 -49.8629 -49.8612 -49.8524 -49.8487 -49.8405 -49.8363
   -49.8339 -49.8262 -49.8214 -49.8005 -49.7770 -49.7594 -49.7581 -49.7501
   -49.7493 -49.7409 -49.7299 -49.7201 -27.0014 -26.9867 -26.9602 -26.9278
   -26.9087 -26.8875 -26.8740 -26.8660 -26.8469 -26.8344 -26.8306 -26.8207
   -26.7994 -26.7826 -26.7705 -26.7578 -26.7397 -26.7332 -26.7236 -26.7140
   -26.7063 -26.6961 -26.6865 -26.6782 -26.6719 -26.6655 -26.6587 -26.6495
   -26.6341 -26.6235 -26.6155 -26.6042 -26.5946 -26.5770 -26.5546 -26.5514
   -26.5447 -26.5387 -26.5136 -26.4982 -26.4786 -26.4626 -26.4513 -26.4302
   -26.4165 -26.4026 -26.3141 -26.2848 -26.2687  -6.2339  -6.1315  -6.1124
    -6.0493  -6.0254  -6.0138  -5.9802  -5.9560  -5.9163  -5.8965  -5.8779
    -5.8517  -5.8432  -5.8176  -5.8091  -5.7860  -5.7635  -5.7402  -5.7300
    -5.7146  -5.7099  -5.6817  -5.6650  -5.6515  -5.6422  -5.6227  -5.6152
    -5.5990  -5.5828  -5.5712  -5.5561  -5.5414  -5.5323  -5.5038  -5.4900
    -5.4780  -5.4753  -5.4579  -5.4405  -5.4257  -5.4059  -5.3980  -5.3863
    -5.3630  -5.3563  -5.3423  -5.3152  -5.2968  -5.2865  -5.2743  -5.2656
    -5.2545  -5.2469  -5.2310  -5.2038  -5.1972  -5.1803  -5.1684  -5.1513
    -5.1408  -5.1226  -5.1058  -5.0973  -5.0877  -5.0745  -5.0557  -5.0491
    -5.0314  -5.0238  -5.0070  -4.9896  -4.9787  -4.9652  -4.9588  -4.9479
    -4.9210  -4.9133  -4.8985  -4.8816  -4.8754  -4.8547  -4.8460  -4.8259
    -4.8138  -4.8016  -4.7883  -4.7840  -4.7713  -4.7509  -4.7431  -4.7248
    -4.7166  -4.7096  -4.6963  -4.6887  -4.6733  -4.6575  -4.6461  -4.6416
    -4.6354  -4.6210  -4.6075  -4.5989  -4.5819  -4.5763  -4.5669  -4.5585
    -4.5400  -4.5323  -4.5063  -4.4963  -4.4869  -4.4675  -4.4588  -4.4495
    -4.4393  -4.4342  -4.4230  -4.4140  -4.4063  -4.3873  -4.3775  -4.3648
    -4.3492  -4.3405  -4.3258  -4.3195  -4.3041  -4.2931  -4.2851  -4.2626
    -4.2539  -4.2487  -4.2286  -4.2091  -4.1964  -4.1789  -4.1602  -4.1469
    -4.1313  -4.0315  -4.0042  -3.9668  -3.9441  -3.9196  -3.8666  -3.8608
    12.4098  12.8028  13.0577  13.3616  13.6425  13.7273  13.9481  14.0997
    14.1520  14.2335  14.3370  14.4808  14.5268  14.5872  14.6687  14.7128
    14.7535  14.8034  14.8400  14.8994  14.9585  14.9802  15.0068  15.0681
    15.1015  15.1222  15.1409  15.1589  15.1775  15.2120  15.2318  15.2452
    15.2704  15.3028  15.3249  15.3369  15.3635  15.3839  15.3982  15.4223
    15.4373  15.4560  15.4691  15.4843  15.4996  15.5222  15.5468  15.5571
    15.5708  15.5921  15.6088  15.6182  15.6276  15.6452  15.6618  15.6814
    15.6927  15.7019  15.7084  15.7191  15.7289  15.7466  15.7523  15.7688
    15.7813  15.7834  15.8019  15.8117  15.8252  15.8327  15.8419  15.8584
    15.8655  15.8808  15.8918  15.9050  15.9178  15.9281  15.9395  15.9450
    15.9550  15.9600  15.9746  15.9855  16.0002  16.0013  16.0241  16.0296
    16.0389  16.0418  16.0552  16.0597  16.0786  16.0922  16.0998  16.1205
    16.1251  16.1453  16.1511  16.1550  16.1719  16.1786  16.1893  16.1987
    16.2089  16.2186  16.2279  16.2436  16.2521  16.2669  16.2709  16.2885
    16.2964  16.3011  16.3077  16.3248  16.3295  16.3464  16.3541  16.3644
    16.3737  16.3829  16.3910  16.3979  16.4158  16.4190  16.4303  16.4418
    16.4554  16.4636  16.4745  16.4808  16.4888  16.5009  16.5120  16.5291
    16.5390  16.5500  16.5568  16.5664  16.5750  16.5853  16.5955  16.6064
    16.6138  16.6220  16.6305  16.6407  16.6491  16.6584  16.6698  16.6778
    16.6919  16.6976  16.7122  16.7197  16.7304  16.7391  16.7449  16.7533
    16.7670  16.7767  16.7830  16.7984  16.8072  16.8113  16.8166  16.8284
    16.8446  16.8575  16.8660  16.8882  16.8960  16.8993  16.9071  16.9215
    16.9345  16.9450  16.9506  16.9632  16.9723  16.9914  16.9948  17.0037
    17.0166  17.0274  17.0414  17.0496  17.0581  17.0707  17.0812  17.0920
    17.1024  17.1137  17.1326  17.1443  17.1520  17.1614  17.1724  17.1808
    17.2017  17.2207  17.2253  17.2355  17.2445  17.2551  17.2609  17.2822
    17.2995  17.3122  17.3172  17.3283  17.3482  17.3665  17.3720  17.3834
    17.3923  17.4083  17.4180  17.4393  17.4437  17.4518  17.4753  17.4880
    17.4919  17.5072  17.5176  17.5222  17.5374  17.5538  17.5621  17.5701
    17.5886  17.5958  17.6105  17.6361  17.6485  17.6719  17.6775  17.6929
    17.7081  17.7267  17.7340  17.7463  17.7572  17.7782  17.7924  17.8025
    17.8284  17.8347  17.8478  17.8636  17.9012  17.9050  17.9309  17.9400
    17.9467  17.9840  17.9935  18.0055  18.0133  18.0326  18.0518  18.0657
    18.0931  18.1064  18.1360  18.1498  18.1803  18.2070  18.2307  18.2571
    18.2824  18.2939  18.3264  18.3412  18.3854  18.4158  18.4487  18.4814
    18.5284  18.5543  18.5642  18.5995  18.6399  18.6755  18.7184  18.7597
    18.8002  18.8483  18.8575  18.9215  18.9425  18.9626  19.0125  19.0583
    19.0682  19.0980  19.1733  19.2000  19.2290  19.2638  19.3301  19.3465
    19.3585  19.4178  19.4560  19.4774  19.5135  19.5405  19.5625  19.6195
    19.6478  19.6851  19.7075  19.7566  19.7854  19.8346  19.8512  19.8652
    19.9134  19.9436  19.9882  20.0151  20.0262  20.0498  20.0718  20.0844
    20.1553  20.1876  20.2075  20.2316  20.2628  20.2911  20.3003  20.3189
    20.3680  20.4116  20.4197  20.4402  20.4537  20.4968  20.5366  20.5458
    20.5743  20.5889  20.6015  20.6674  20.6986  20.7321  20.7599  20.7790
    20.8136  20.8436  20.8807  20.8977  20.9268  20.9524  20.9804  20.9994
    21.0259  21.0416  21.0947  21.1238  21.1674  21.1882  21.2197  21.2323
    21.2741  21.3028  21.3257  21.3531  21.3764  21.3965  21.4090  21.4458
    21.4663  21.5017  21.5178  21.5678  21.5976  21.6080  21.6470  21.6706
    21.6930  21.7260  21.7333  21.7690  21.8052  21.8471  21.8623  21.8756
    21.9207  21.9245  21.9506  21.9933  22.0395  22.0773  22.0979  22.1154
    22.1598  22.1821  22.2108  22.2455  22.2679  22.3105  22.3488  22.3737
    22.4033  22.4336  22.4795  22.5091  22.5406  22.5704  22.6205  22.6352
    22.6658  22.6936  22.7424  22.7639  22.7767  22.8312  22.8669  22.8944
    22.9340  22.9733  23.0593  23.0670  23.1003  23.1383  23.1512  23.2005
    23.2515  23.3173  23.3424  23.3883  23.4280  23.4570  23.4821  23.5364
    23.5588  23.5912  23.6325  23.7061  23.7351  23.8100  23.8263  23.9037
    23.9256  23.9455  23.9851  24.0479  24.0990  24.1295  24.1703  24.2010
    24.2518  24.2937  24.3435  24.3980  24.4361  24.4780  24.4933  24.5189
    24.5751  24.6304  24.6614  24.7146  24.7383  24.7695  24.8226  24.8637
    24.8972  24.9568  24.9887  25.0015  25.0422  25.0848  25.1527  25.1917
    25.2326  25.2619  25.3188  25.3326  25.3800  25.4234  25.4610  25.5209
    25.5385  25.5856  25.6230  25.6376  25.6658  25.7228  25.7522  25.7617
    25.8169  25.8783  25.9003  25.9492  25.9855  26.0355  26.0578  26.1047
    26.1484  26.1741  26.2185  26.2354  26.2632  26.2931  26.3415  26.3802
    26.4119  26.4235  26.4805  26.5267  26.5733  26.5820  26.6780  26.7168
    26.7331  26.7553  26.7815  26.8224  26.8714  26.9146  26.9511  26.9946
    27.0176  27.0802  27.1686  27.1927  27.2259  27.3003  27.3181  27.3440
    27.4365  27.4411  27.4810  27.5806  27.5860  27.6590  27.7161  27.7568
    27.8274  27.8807  27.9029  27.9602  28.0522  28.1244  28.1417  28.2025
    28.2654  28.3112  28.3681  28.4455  28.4631  28.5060  28.5855  28.6943
    28.7967  28.8330  28.8859  28.9458  28.9896  29.1241  29.2263  29.2692
    29.3325  29.3854  29.4459  29.5712  29.6148  29.6609  29.7034  29.7521
    29.8363  29.8975  29.9896  30.0409  30.1232  30.1520  30.2215  30.2870
    30.3647  30.3825  30.4553  30.5731  30.5841  30.6476  30.6614  30.7113
    30.8039  30.8407  30.9325  30.9844  31.0433  31.0924  31.1286  31.1707
    31.2312  31.2939  31.3384  31.3926  31.4177  31.4824  31.5546  31.5686
    31.6267  31.6562  31.6874  31.7906  31.8353  31.8489  31.8873  31.9525
    31.9891  32.0577  32.0994  32.1476  32.1791  32.1834  32.2769  32.3269
    32.3634  32.3967  32.4372  32.5114  32.5686  32.5884  32.6378  32.6735
    32.7564  32.7731  32.8338  32.8886  32.9180  32.9469  33.0047  33.0296
    33.0485  33.0990  33.1462  33.1751  33.2086  33.2665  33.3043  33.3273
    33.4080  33.4273  33.4891  33.5161  33.5605  33.5759  33.6494  33.6732
    33.7187  33.7580  33.7708  33.8354  33.8891  33.9418  33.9744  34.0121
    34.0469  34.0899  34.1459  34.1619  34.2020  34.2352  34.2640  34.2889
    34.3433  34.4185  34.4284  34.4912  34.5080  34.5428  34.5957  34.6183
    34.6837  34.7032  34.7145  34.7651  34.7994  34.8403  34.9155  34.9620
    34.9938  35.0259  35.0527  35.0734  35.1366  35.2003

     occupation numbers 
     1.0000   1.0000   1.0000   1.0000   1.0000   1.0000   1.0000   1.0000
     1.0000   1.0000   1.0000   1.0000   1.0000   1.0000   1.0000   1.0000
     1.0000   1.0000   1.0000   1.0000   1.0000   1.0000   1.0000   1.0000
     1.0000   1.0000   1.0000   1.0000   1.0000   1.0000   1.0000   1.0000
     1.0000   1.0000   1.0000   1.0000   1.0000   1.0000   1.0000   1.0000
     1.0000   1.0000   1.0000   1.0000   1.0000   1.0000   1.0000   1.0000
     1.0000   1.0000   1.0000   1.0000   1.0000   1.0000   1.0000   1.0000
     1.0000   1.0000   1.0000   1.0000   1.0000   1.0000   1.0000   1.0000
     1.0000   1.0000   1.0000   1.0000   1.0000   1.0000   1.0000   1.0000
     1.0000   1.0000   1.0000   1.0000   1.0000   1.0000   1.0000   1.0000
     1.0000   1.0000   1.0000   1.0000   1.0000   1.0000   1.0000   1.0000
     1.0000   1.0000   1.0000   1.0000   1.0000   1.0000   1.0000   1.0000
     1.0000   1.0000   1.0000   1.0000   1.0000   1.0000   1.0000   1.0000
     1.0000   1.0000   1.0000   1.0000   1.0000   1.0000   1.0000   1.0000
     1.0000   1.0000   1.0000   1.0000   1.0000   1.0000   1.0000   1.0000
     1.0000   1.0000   1.0000   1.0000   1.0000   1.0000   1.0000   1.0000
     1.0000   1.0000   1.0000   1.0000   1.0000   1.0000   1.0000   1.0000
     1.0000   1.0000   1.0000   1.0000   1.0000   1.0000   1.0000   1.0000
     1.0000   1.0000   1.0000   1.0000   1.0000   1.0000   1.0000   1.0000
     1.0000   1.0000   1.0000   1.0000   1.0000   1.0000   1.0000   1.0000
     1.0000   1.0000   1.0000   1.0000   1.0000   1.0000   1.0000   1.0000
     1.0000   1.0000   1.0000   1.0000   1.0000   1.0000   1.0000   1.0000
     1.0000   1.0000   1.0000   1.0000   1.0000   1.0000   1.0000   1.0000
     1.0000   1.0000   1.0000   1.0000   1.0000   1.0000   1.0000   1.0000
     1.0000   1.0000   1.0000   1.0000   1.0000   1.0000   1.0000   1.0000
     1.0000   1.0000   1.0000   1.0000   1.0000   1.0000   1.0000   1.0000
     1.0000   1.0000   1.0000   1.0000   1.0000   1.0000   1.0000   1.0000
     1.0000   1.0000   1.0000   1.0000   1.0000   1.0000   1.0000   1.0000
     1.0000   1.0000   1.0000   1.0000   1.0000   1.0000   1.0000   1.0000
     1.0000   1.0000   1.0000   1.0000   1.0000   1.0000   1.0000   1.0000
     1.0000   1.0000   1.0000   1.0000   1.0000   1.0000   1.0000   1.0000
     1.0000   1.0000   1.0000   1.0000   1.0000   1.0000   1.0000   1.0000
     1.0000   1.0000   1.0000   1.0000   1.0000   1.0000   1.0000   1.0000
     1.0000   1.0000   1.0000   1.0000   1.0000   1.0000   1.0000   1.0000
     1.0000   1.0000   1.0000   1.0000   1.0000   1.0000   1.0000   1.0000
     1.0000   1.0000   1.0000   1.0000   1.0000   1.0000   1.0000   1.0000
     1.0000   1.0000   1.0000   1.0000   1.0000   1.0000   1.0000   1.0000
     1.0000   1.0000   1.0000   1.0000   1.0000   1.0000   1.0000   1.0000
     1.0000   1.0000   1.0000   1.0000   1.0000   1.0000   1.0000   1.0000
     1.0000   1.0000   1.0000   1.0000   1.0000   1.0000   1.0000   1.0000
     1.0000   1.0000   1.0000   1.0000   1.0000   1.0000   1.0000   1.0000
     1.0000   1.0000   1.0000   1.0000   1.0000   1.0000   1.0000   1.0000
     1.0000   1.0000   1.0000   1.0000   1.0000   1.0000   1.0000   1.0000
     1.0000   1.0000   1.0000   1.0000   1.0000   1.0000   1.0000   1.0000
     1.0000   1.0000   1.0000   1.0000   1.0000   1.0000   1.0000   1.0000
     1.0000   1.0000   1.0000   1.0000   1.0000   1.0000   1.0000   1.0000
     1.0000   1.0000   1.0000   1.0000   1.0000   1.0000   1.0000   1.0000
     1.0000   1.0000   1.0000   1.0000   1.0000   1.0000   1.0000   1.0000
     1.0000   1.0000   1.0000   1.0000   1.0000   1.0000   1.0000   1.0000
     1.0000   1.0000   1.0000   1.0000   1.0000   1.0000   1.0000   1.0000
     1.0000   1.0000   1.0000   1.0000   1.0000   1.0000   1.0000   1.0000
     1.0000   1.0000   1.0000   1.0000   1.0000   1.0000   1.0000   1.0000
     1.0000   1.0000   1.0000   1.0000   1.0000   1.0000   1.0000   1.0000
     1.0000   1.0000   1.0000   1.0000   1.0000   1.0000   1.0000   1.0000
     1.0000   1.0000   1.0000   1.0000   1.0000   1.0000   1.0000   1.0000
     1.0000   1.0000   1.0000   1.0000   1.0000   1.0000   1.0000   1.0000
     1.0000   1.0000   1.0000   1.0000   1.0000   1.0000   1.0000   1.0000
     1.0000   1.0000   1.0000   1.0000   1.0000   1.0000   1.0000   1.0000
     1.0000   1.0000   1.0000   1.0000   1.0000   1.0000   1.0000   1.0000
     1.0000   1.0000   1.0000   1.0000   1.0000   1.0000   1.0000   1.0000
     1.0000   1.0000   1.0000   1.0000   1.0000   1.0000   1.0000   1.0000
     1.0000   1.0000   1.0000   1.0000   1.0000   1.0000   1.0000   1.0000
     1.0000   1.0000   1.0000   1.0000   1.0000   1.0000   1.0000   1.0000
     1.0000   1.0000   1.0000   1.0000   1.0000   1.0000   1.0000   1.0000
     1.0000   1.0000   1.0000   1.0000   1.0000   1.0000   1.0000   1.0000
     1.0000   1.0000   1.0000   1.0000   1.0000   1.0000   1.0000   1.0000
     1.0000   1.0000   1.0000   1.0000   1.0000   1.0000   1.0000   1.0000
     1.0000   1.0000   1.0000   1.0000   1.0000   1.0000   1.0000   1.0000
     1.0000   1.0000   1.0000   1.0000   1.0000   1.0000   1.0000   1.0000
     1.0000   1.0000   1.0000   1.0000   1.0000   1.0000   1.0000   1.0000
     1.0000   1.0000   1.0000   1.0000   1.0000   1.0000   1.0000   1.0000
     1.0000   1.0000   1.0000   1.0000   1.0000   1.0000   1.0000   1.0000
     1.0000   1.0000   1.0000   1.0000   1.0000   1.0000   1.0000   1.0000
     1.0000   1.0000   1.0000   1.0000   1.0000   1.0000   1.0000   1.0000
     1.0000   1.0000   1.0000   1.0000   1.0000   1.0000   1.0000   1.0000
     1.0000   1.0000   1.0000   1.0000   1.0000   1.0000   1.0000   1.0000
     1.0000   1.0000   1.0000   1.0000   1.0000   1.0000   1.0000   1.0000
     1.0000   1.0000   1.0000   1.0000   1.0000   1.0000   1.0000   1.0000
     1.0000   1.0000   1.0000   1.0000   1.0000   1.0000   1.0000   1.0000
     1.0000   1.0000   1.0000   1.0000   1.0000   1.0000   1.0000   1.0000
     1.0000   1.0000   1.0000   1.0000   1.0000   1.0000   1.0000   1.0000
     1.0000   1.0000   1.0000   1.0000   1.0000   1.0000   1.0000   1.0000
     1.0000   1.0000   1.0000   1.0000   1.0000   1.0000   1.0000   1.0000
     1.0000   1.0000   1.0000   1.0000   1.0000   1.0000   1.0000   1.0000
     1.0000   1.0000   1.0000   1.0000   1.0000   1.0000   1.0000   1.0000
     1.0000   1.0000   1.0000   1.0000   1.0000   1.0000   1.0000   1.0000
     1.0000   1.0000   1.0000   1.0000   1.0000   1.0000   1.0000   1.0000
     1.0000   1.0000   1.0000   1.0000   1.0000   1.0000   1.0000   1.0000
     1.0000   1.0000   1.0000   1.0000   1.0000   1.0000   1.0000   1.0000
     1.0000   1.0000   1.0000   1.0000   1.0000   1.0000   1.0000   1.0000
     1.0000   1.0000   1.0000   0.9999   0.9999   0.9999   0.9999   0.9999
     0.9998   0.9997   0.9997   0.9997   0.9996   0.9994   0.9992   0.9991
     0.9988   0.9987   0.9985   0.9973   0.9963   0.9950   0.9936   0.9924
     0.9895   0.9863   0.9808   0.9776   0.9710   0.9636   0.9534   0.9449
     0.9308   0.9210   0.8773   0.8455   0.7858   0.7518   0.6941   0.6689
     0.5793   0.5140   0.4615   0.3998   0.3496   0.3090   0.2850   0.2214
     0.1905   0.1453   0.1279   0.0848   0.0658   0.0602   0.0429   0.0348
     0.0285   0.0212   0.0199   0.0144   0.0104   0.0071   0.0062   0.0054
     0.0036   0.0035   0.0027   0.0019   0.0012   0.0009   0.0007   0.0006
     0.0004   0.0003   0.0003   0.0002   0.0001   0.0001   0.0001   0.0001
     0.0000   0.0000   0.0000   0.0000   0.0000   0.0000   0.0000   0.0000
     0.0000   0.0000   0.0000   0.0000   0.0000   0.0000   0.0000   0.0000
     0.0000   0.0000   0.0000   0.0000   0.0000   0.0000   0.0000   0.0000
     0.0000   0.0000   0.0000   0.0000   0.0000   0.0000   0.0000   0.0000
     0.0000   0.0000   0.0000   0.0000   0.0000   0.0000   0.0000   0.0000
     0.0000   0.0000   0.0000   0.0000   0.0000   0.0000   0.0000   0.0000
     0.0000   0.0000   0.0000   0.0000   0.0000   0.0000   0.0000   0.0000
     0.0000   0.0000   0.0000   0.0000   0.0000   0.0000   0.0000   0.0000
     0.0000   0.0000   0.0000   0.0000   0.0000   0.0000   0.0000   0.0000
     0.0000   0.0000   0.0000   0.0000   0.0000   0.0000   0.0000   0.0000
     0.0000   0.0000   0.0000   0.0000   0.0000   0.0000   0.0000   0.0000
     0.0000   0.0000   0.0000   0.0000   0.0000   0.0000   0.0000   0.0000
     0.0000   0.0000   0.0000   0.0000   0.0000   0.0000   0.0000   0.0000
     0.0000   0.0000   0.0000   0.0000   0.0000   0.0000   0.0000   0.0000
     0.0000   0.0000   0.0000   0.0000   0.0000   0.0000   0.0000   0.0000
     0.0000   0.0000   0.0000   0.0000   0.0000   0.0000   0.0000   0.0000
     0.0000   0.0000   0.0000   0.0000   0.0000   0.0000   0.0000   0.0000
     0.0000   0.0000   0.0000   0.0000   0.0000   0.0000   0.0000   0.0000
     0.0000   0.0000   0.0000   0.0000   0.0000   0.0000   0.0000   0.0000
     0.0000   0.0000   0.0000   0.0000   0.0000   0.0000   0.0000   0.0000
     0.0000   0.0000   0.0000   0.0000   0.0000   0.0000   0.0000   0.0000
     0.0000   0.0000   0.0000   0.0000   0.0000   0.0000   0.0000   0.0000
     0.0000   0.0000   0.0000   0.0000   0.0000   0.0000   0.0000   0.0000
     0.0000   0.0000   0.0000   0.0000   0.0000   0.0000   0.0000   0.0000
     0.0000   0.0000   0.0000   0.0000   0.0000   0.0000   0.0000   0.0000
     0.0000   0.0000   0.0000   0.0000   0.0000   0.0000   0.0000   0.0000
     0.0000   0.0000   0.0000   0.0000   0.0000   0.0000   0.0000   0.0000
     0.0000   0.0000   0.0000   0.0000   0.0000   0.0000   0.0000   0.0000
     0.0000   0.0000   0.0000   0.0000   0.0000   0.0000   0.0000   0.0000
     0.0000   0.0000   0.0000   0.0000   0.0000   0.0000   0.0000   0.0000
     0.0000   0.0000   0.0000   0.0000   0.0000   0.0000   0.0000   0.0000
     0.0000   0.0000   0.0000   0.0000   0.0000   0.0000   0.0000   0.0000
     0.0000   0.0000   0.0000   0.0000   0.0000   0.0000   0.0000   0.0000
     0.0000   0.0000   0.0000   0.0000   0.0000   0.0000   0.0000   0.0000
     0.0000   0.0000   0.0000   0.0000   0.0000   0.0000   0.0000   0.0000
     0.0000   0.0000   0.0000   0.0000   0.0000   0.0000

          k = 0.2500 0.2500-0.2500 ( 84604 PWs)   bands (ev):

   -93.2422 -93.1439 -93.0356 -93.0331 -93.0237 -93.0101 -92.9946 -92.9756
   -92.9601 -92.9572 -92.9311 -92.9198 -92.8991 -92.8913 -92.8866 -92.8815
   -92.8745 -92.8718 -92.8542 -92.8511 -92.8350 -92.8329 -92.8318 -92.8311
   -92.8295 -92.8254 -92.7997 -92.7760 -92.7428 -92.7427 -92.7425 -92.6998
   -92.6965 -92.6816 -92.6776 -92.6259 -92.6253 -92.6216 -92.6112 -92.6022
   -92.5724 -92.5601 -92.5502 -92.5304 -92.5216 -92.5093 -92.5039 -92.4406
   -92.4116 -50.7232 -50.6404 -50.6060 -50.5403 -50.5277 -50.4920 -50.4859
   -50.4653 -50.4573 -50.4409 -50.4284 -50.4206 -50.4178 -50.4096 -50.3962
   -50.3871 -50.3849 -50.3725 -50.3692 -50.3558 -50.3547 -50.3460 -50.3405
   -50.3379 -50.3372 -50.3310 -50.3260 -50.3255 -50.3191 -50.3139 -50.3132
   -50.3097 -50.3057 -50.3006 -50.3001 -50.2972 -50.2948 -50.2945 -50.2876
   -50.2814 -50.2767 -50.2750 -50.2729 -50.2593 -50.2474 -50.2456 -50.2342
   -50.2337 -50.2329 -50.2274 -50.2228 -50.2205 -50.2193 -50.2185 -50.2170
   -50.2071 -50.2048 -50.2044 -50.1939 -50.1874 -50.1851 -50.1822 -50.1820
   -50.1749 -50.1746 -50.1654 -50.1647 -50.1531 -50.1527 -50.1519 -50.1516
   -50.1473 -50.1459 -50.1443 -50.1440 -50.1383 -50.1349 -50.1326 -50.1303
   -50.1218 -50.1213 -50.1117 -50.1089 -50.1067 -50.1045 -50.1042 -50.0939
   -50.0890 -50.0845 -50.0786 -50.0757 -50.0695 -50.0665 -50.0595 -50.0434
   -50.0434 -50.0428 -50.0274 -50.0217 -50.0205 -50.0185 -50.0128 -50.0113
   -50.0079 -50.0066 -49.9985 -49.9981 -49.9942 -49.9915 -49.9758 -49.9711
   -49.9653 -49.9640 -49.9539 -49.9520 -49.9490 -49.9412 -49.9398 -49.9282
   -49.9255 -49.9237 -49.9203 -49.9177 -49.9081 -49.8958 -49.8878 -49.8876
   -49.8803 -49.8768 -49.8629 -49.8612 -49.8524 -49.8487 -49.8405 -49.8363
   -49.8339 -49.8262 -49.8214 -49.8004 -49.7770 -49.7594 -49.7581 -49.7501
   -49.7493 -49.7409 -49.7299 -49.7201 -27.0018 -26.9861 -26.9597 -26.9233
   -26.9173 -26.8897 -26.8751 -26.8636 -26.8392 -26.8335 -26.8248 -26.8159
   -26.8003 -26.7965 -26.7772 -26.7575 -26.7432 -26.7295 -26.7205 -26.7164
   -26.7071 -26.6939 -26.6855 -26.6768 -26.6678 -26.6613 -26.6547 -26.6512
   -26.6383 -26.6254 -26.6169 -26.6054 -26.5962 -26.5758 -26.5584 -26.5525
   -26.5431 -26.5337 -26.5159 -26.4986 -26.4765 -26.4642 -26.4513 -26.4299
   -26.4157 -26.4032 -26.3141 -26.2848 -26.2686  -6.2341  -6.1425  -6.1004
    -6.0550  -6.0351  -6.0080  -5.9746  -5.9414  -5.9121  -5.9028  -5.8768
    -5.8589  -5.8341  -5.8249  -5.8022  -5.7892  -5.7651  -5.7570  -5.7387
    -5.7115  -5.6961  -5.6863  -5.6614  -5.6525  -5.6385  -5.6247  -5.6192
    -5.5982  -5.5854  -5.5626  -5.5479  -5.5319  -5.5197  -5.5025  -5.4948
    -5.4808  -5.4670  -5.4530  -5.4499  -5.4328  -5.4135  -5.4006  -5.3926
    -5.3648  -5.3615  -5.3474  -5.3309  -5.3103  -5.2954  -5.2781  -5.2678
    -5.2461  -5.2372  -5.2156  -5.2009  -5.1953  -5.1765  -5.1615  -5.1458
    -5.1270  -5.1173  -5.1101  -5.1007  -5.0902  -5.0714  -5.0663  -5.0560
    -5.0389  -5.0199  -5.0104  -4.9939  -4.9877  -4.9633  -4.9491  -4.9426
    -4.9210  -4.9110  -4.8971  -4.8841  -4.8723  -4.8489  -4.8409  -4.8288
    -4.8170  -4.8044  -4.8006  -4.7810  -4.7721  -4.7608  -4.7511  -4.7264
    -4.7132  -4.7043  -4.6906  -4.6801  -4.6691  -4.6616  -4.6477  -4.6351
    -4.6287  -4.6123  -4.6071  -4.5921  -4.5830  -4.5741  -4.5658  -4.5486
    -4.5359  -4.5264  -4.5140  -4.5012  -4.4954  -4.4770  -4.4598  -4.4539
    -4.4449  -4.4307  -4.4218  -4.4134  -4.4044  -4.3933  -4.3709  -4.3650
    -4.3474  -4.3431  -4.3340  -4.3172  -4.3057  -4.2991  -4.2855  -4.2696
    -4.2578  -4.2386  -4.2272  -4.2166  -4.1902  -4.1775  -4.1579  -4.1457
    -4.1336  -4.0279  -4.0110  -3.9738  -3.9320  -3.9197  -3.8660  -3.8605
    12.4057  12.8283  13.0315  13.3533  13.6934  13.7024  13.9329  14.0451
    14.2016  14.2743  14.3374  14.4364  14.5347  14.5937  14.6539  14.7181
    14.7662  14.7949  14.8480  14.8930  14.9383  14.9757  15.0175  15.0488
    15.0850  15.1305  15.1456  15.1833  15.1943  15.2100  15.2225  15.2689
    15.2697  15.2883  15.3097  15.3403  15.3547  15.3804  15.3996  15.4142
    15.4277  15.4532  15.4615  15.4911  15.5044  15.5204  15.5428  15.5679
    15.5756  15.5819  15.6094  15.6261  15.6387  15.6453  15.6571  15.6704
    15.6840  15.6950  15.7077  15.7124  15.7393  15.7491  15.7604  15.7741
    15.7769  15.7869  15.8045  15.8183  15.8323  15.8496  15.8588  15.8639
    15.8715  15.8867  15.8985  15.9038  15.9211  15.9234  15.9348  15.9484
    15.9561  15.9665  15.9744  15.9899  15.9926  16.0128  16.0217  16.0338
    16.0458  16.0547  16.0599  16.0639  16.0752  16.0900  16.0995  16.1050
    16.1219  16.1331  16.1444  16.1531  16.1630  16.1778  16.1813  16.2037
    16.2118  16.2180  16.2275  16.2372  16.2492  16.2510  16.2648  16.2765
    16.2936  16.3042  16.3115  16.3220  16.3395  16.3438  16.3560  16.3653
    16.3731  16.3839  16.3950  16.4103  16.4209  16.4305  16.4360  16.4489
    16.4552  16.4681  16.4811  16.4901  16.5014  16.5055  16.5102  16.5259
    16.5367  16.5444  16.5555  16.5678  16.5723  16.5791  16.5950  16.5983
    16.6206  16.6246  16.6348  16.6401  16.6532  16.6623  16.6659  16.6734
    16.6828  16.7008  16.7107  16.7170  16.7320  16.7410  16.7485  16.7595
    16.7695  16.7743  16.7838  16.7879  16.7994  16.8058  16.8233  16.8361
    16.8427  16.8536  16.8652  16.8738  16.8845  16.9002  16.9103  16.9179
    16.9265  16.9375  16.9416  16.9543  16.9664  16.9761  16.9978  17.0044
    17.0209  17.0336  17.0358  17.0480  17.0633  17.0724  17.0785  17.0962
    17.1117  17.1182  17.1293  17.1469  17.1508  17.1571  17.1852  17.1983
    17.2113  17.2156  17.2261  17.2372  17.2442  17.2578  17.2758  17.2841
    17.2939  17.3058  17.3176  17.3245  17.3478  17.3552  17.3745  17.3807
    17.3939  17.4073  17.4127  17.4328  17.4392  17.4491  17.4696  17.4804
    17.4915  17.5100  17.5194  17.5266  17.5417  17.5518  17.5690  17.5755
    17.5985  17.6033  17.6124  17.6382  17.6463  17.6583  17.6768  17.6879
    17.7007  17.7142  17.7227  17.7418  17.7662  17.7803  17.7976  17.8095
    17.8203  17.8351  17.8563  17.8577  17.8764  17.9135  17.9293  17.9327
    17.9515  17.9558  17.9841  18.0060  18.0156  18.0333  18.0383  18.0623
    18.0710  18.1076  18.1309  18.1463  18.1659  18.2031  18.2382  18.2511
    18.2828  18.2987  18.3368  18.3534  18.3761  18.4324  18.4456  18.4653
    18.5142  18.5257  18.5807  18.6072  18.6462  18.7079  18.7289  18.7847
    18.8039  18.8495  18.8768  18.8995  18.9542  19.0218  19.0399  19.0615
    19.1147  19.1423  19.1801  19.2077  19.2182  19.2480  19.2795  19.3236
    19.3852  19.4133  19.4410  19.4914  19.5241  19.5512  19.5716  19.6128
    19.6218  19.6656  19.6863  19.7286  19.7854  19.8259  19.8323  19.8764
    19.9062  19.9281  19.9546  19.9812  20.0267  20.0529  20.0900  20.1051
    20.1310  20.1615  20.1904  20.2230  20.2598  20.2746  20.3184  20.3425
    20.3766  20.4022  20.4327  20.4520  20.4768  20.5205  20.5443  20.5764
    20.6157  20.6303  20.6523  20.6755  20.7137  20.7355  20.7567  20.7969
    20.8283  20.8366  20.8672  20.9099  20.9303  20.9681  20.9938  21.0194
    21.0394  21.0550  21.0962  21.1103  21.1479  21.1723  21.1900  21.2338
    21.2513  21.2761  21.2969  21.3301  21.3461  21.3716  21.3826  21.4372
    21.4572  21.4861  21.5099  21.5773  21.6051  21.6189  21.6247  21.6519
    21.6865  21.7019  21.7287  21.7564  21.7927  21.8140  21.8720  21.8934
    21.9241  21.9376  21.9736  22.0100  22.0247  22.0622  22.0988  22.1156
    22.1524  22.1860  22.2074  22.2342  22.2711  22.3125  22.3303  22.3635
    22.4142  22.4392  22.4746  22.5058  22.5284  22.5564  22.5930  22.6420
    22.6605  22.6984  22.7161  22.7537  22.8020  22.8327  22.8811  22.9271
    22.9748  22.9891  23.0318  23.0607  23.1090  23.1384  23.1867  23.2185
    23.2572  23.2979  23.3604  23.3960  23.4303  23.4453  23.4922  23.5354
    23.6067  23.6321  23.6715  23.7155  23.7635  23.8062  23.8684  23.8846
    23.9266  23.9610  23.9896  24.0459  24.1017  24.1429  24.1789  24.2022
    24.2629  24.2822  24.3172  24.3381  24.3969  24.4525  24.5122  24.5282
    24.5778  24.6398  24.6775  24.6978  24.7328  24.8088  24.8195  24.8838
    24.9001  24.9351  24.9729  25.0326  25.0795  25.1074  25.1239  25.1755
    25.2083  25.2326  25.2843  25.3445  25.3961  25.4136  25.4672  25.5218
    25.5284  25.5718  25.6093  25.6454  25.6731  25.7092  25.7379  25.7800
    25.8351  25.8731  25.8940  25.9314  25.9588  26.0064  26.0484  26.0756
    26.0999  26.1466  26.1775  26.1949  26.2542  26.3244  26.3415  26.3560
    26.3845  26.4414  26.4966  26.5298  26.5947  26.6243  26.6523  26.7109
    26.7379  26.7717  26.8080  26.8348  26.8782  26.9344  26.9726  27.0033
    27.0338  27.1019  27.1287  27.1580  27.2176  27.2570  27.3046  27.3739
    27.4077  27.4570  27.5068  27.5721  27.6327  27.6559  27.6936  27.7557
    27.8423  27.8759  27.9435  27.9643  28.0692  28.1210  28.1579  28.2124
    28.2293  28.3065  28.3657  28.4233  28.5089  28.5869  28.6000  28.6752
    28.7222  28.7883  28.9288  29.0368  29.0909  29.1206  29.1426  29.2005
    29.3156  29.3767  29.4525  29.4964  29.6180  29.7042  29.7386  29.8145
    29.8412  29.9538  30.0196  30.0805  30.1262  30.1627  30.2139  30.3033
    30.3230  30.4050  30.4672  30.5629  30.6184  30.6486  30.7213  30.7429
    30.8352  30.8739  30.9401  30.9902  31.0383  31.0711  31.1520  31.1614
    31.2063  31.2530  31.3133  31.3394  31.3920  31.4071  31.4757  31.5408
    31.5720  31.6332  31.6982  31.7529  31.7982  31.8481  31.8886  31.9086
    31.9657  32.0064  32.0707  32.1428  32.1863  32.2554  32.2768  32.3275
    32.3478  32.4055  32.4329  32.5028  32.5179  32.5680  32.6295  32.6496
    32.7203  32.7630  32.7980  32.8534  32.8833  32.9188  33.0045  33.0224
    33.0544  33.0985  33.1267  33.2079  33.2549  33.2823  33.3332  33.3861
    33.4045  33.4619  33.5095  33.5575  33.5867  33.6290  33.6794  33.6966
    33.7259  33.7508  33.7796  33.8267  33.8828  33.9443  33.9893  34.0218
    34.0535  34.1030  34.1563  34.1997  34.2203  34.2592  34.3046  34.3359
    34.3781  34.4419  34.4590  34.4857  34.5399  34.5547  34.6155  34.6433
    34.6827  34.7215  34.7501  34.8068  34.8328  34.8689  34.8977  34.9361
    35.0039  35.0148  35.0315  35.0950  35.1573  35.1945

     occupation numbers 
     1.0000   1.0000   1.0000   1.0000   1.0000   1.0000   1.0000   1.0000
     1.0000   1.0000   1.0000   1.0000   1.0000   1.0000   1.0000   1.0000
     1.0000   1.0000   1.0000   1.0000   1.0000   1.0000   1.0000   1.0000
     1.0000   1.0000   1.0000   1.0000   1.0000   1.0000   1.0000   1.0000
     1.0000   1.0000   1.0000   1.0000   1.0000   1.0000   1.0000   1.0000
     1.0000   1.0000   1.0000   1.0000   1.0000   1.0000   1.0000   1.0000
     1.0000   1.0000   1.0000   1.0000   1.0000   1.0000   1.0000   1.0000
     1.0000   1.0000   1.0000   1.0000   1.0000   1.0000   1.0000   1.0000
     1.0000   1.0000   1.0000   1.0000   1.0000   1.0000   1.0000   1.0000
     1.0000   1.0000   1.0000   1.0000   1.0000   1.0000   1.0000   1.0000
     1.0000   1.0000   1.0000   1.0000   1.0000   1.0000   1.0000   1.0000
     1.0000   1.0000   1.0000   1.0000   1.0000   1.0000   1.0000   1.0000
     1.0000   1.0000   1.0000   1.0000   1.0000   1.0000   1.0000   1.0000
     1.0000   1.0000   1.0000   1.0000   1.0000   1.0000   1.0000   1.0000
     1.0000   1.0000   1.0000   1.0000   1.0000   1.0000   1.0000   1.0000
     1.0000   1.0000   1.0000   1.0000   1.0000   1.0000   1.0000   1.0000
     1.0000   1.0000   1.0000   1.0000   1.0000   1.0000   1.0000   1.0000
     1.0000   1.0000   1.0000   1.0000   1.0000   1.0000   1.0000   1.0000
     1.0000   1.0000   1.0000   1.0000   1.0000   1.0000   1.0000   1.0000
     1.0000   1.0000   1.0000   1.0000   1.0000   1.0000   1.0000   1.0000
     1.0000   1.0000   1.0000   1.0000   1.0000   1.0000   1.0000   1.0000
     1.0000   1.0000   1.0000   1.0000   1.0000   1.0000   1.0000   1.0000
     1.0000   1.0000   1.0000   1.0000   1.0000   1.0000   1.0000   1.0000
     1.0000   1.0000   1.0000   1.0000   1.0000   1.0000   1.0000   1.0000
     1.0000   1.0000   1.0000   1.0000   1.0000   1.0000   1.0000   1.0000
     1.0000   1.0000   1.0000   1.0000   1.0000   1.0000   1.0000   1.0000
     1.0000   1.0000   1.0000   1.0000   1.0000   1.0000   1.0000   1.0000
     1.0000   1.0000   1.0000   1.0000   1.0000   1.0000   1.0000   1.0000
     1.0000   1.0000   1.0000   1.0000   1.0000   1.0000   1.0000   1.0000
     1.0000   1.0000   1.0000   1.0000   1.0000   1.0000   1.0000   1.0000
     1.0000   1.0000   1.0000   1.0000   1.0000   1.0000   1.0000   1.0000
     1.0000   1.0000   1.0000   1.0000   1.0000   1.0000   1.0000   1.0000
     1.0000   1.0000   1.0000   1.0000   1.0000   1.0000   1.0000   1.0000
     1.0000   1.0000   1.0000   1.0000   1.0000   1.0000   1.0000   1.0000
     1.0000   1.0000   1.0000   1.0000   1.0000   1.0000   1.0000   1.0000
     1.0000   1.0000   1.0000   1.0000   1.0000   1.0000   1.0000   1.0000
     1.0000   1.0000   1.0000   1.0000   1.0000   1.0000   1.0000   1.0000
     1.0000   1.0000   1.0000   1.0000   1.0000   1.0000   1.0000   1.0000
     1.0000   1.0000   1.0000   1.0000   1.0000   1.0000   1.0000   1.0000
     1.0000   1.0000   1.0000   1.0000   1.0000   1.0000   1.0000   1.0000
     1.0000   1.0000   1.0000   1.0000   1.0000   1.0000   1.0000   1.0000
     1.0000   1.0000   1.0000   1.0000   1.0000   1.0000   1.0000   1.0000
     1.0000   1.0000   1.0000   1.0000   1.0000   1.0000   1.0000   1.0000
     1.0000   1.0000   1.0000   1.0000   1.0000   1.0000   1.0000   1.0000
     1.0000   1.0000   1.0000   1.0000   1.0000   1.0000   1.0000   1.0000
     1.0000   1.0000   1.0000   1.0000   1.0000   1.0000   1.0000   1.0000
     1.0000   1.0000   1.0000   1.0000   1.0000   1.0000   1.0000   1.0000
     1.0000   1.0000   1.0000   1.0000   1.0000   1.0000   1.0000   1.0000
     1.0000   1.0000   1.0000   1.0000   1.0000   1.0000   1.0000   1.0000
     1.0000   1.0000   1.0000   1.0000   1.0000   1.0000   1.0000   1.0000
     1.0000   1.0000   1.0000   1.0000   1.0000   1.0000   1.0000   1.0000
     1.0000   1.0000   1.0000   1.0000   1.0000   1.0000   1.0000   1.0000
     1.0000   1.0000   1.0000   1.0000   1.0000   1.0000   1.0000   1.0000
     1.0000   1.0000   1.0000   1.0000   1.0000   1.0000   1.0000   1.0000
     1.0000   1.0000   1.0000   1.0000   1.0000   1.0000   1.0000   1.0000
     1.0000   1.0000   1.0000   1.0000   1.0000   1.0000   1.0000   1.0000
     1.0000   1.0000   1.0000   1.0000   1.0000   1.0000   1.0000   1.0000
     1.0000   1.0000   1.0000   1.0000   1.0000   1.0000   1.0000   1.0000
     1.0000   1.0000   1.0000   1.0000   1.0000   1.0000   1.0000   1.0000
     1.0000   1.0000   1.0000   1.0000   1.0000   1.0000   1.0000   1.0000
     1.0000   1.0000   1.0000   1.0000   1.0000   1.0000   1.0000   1.0000
     1.0000   1.0000   1.0000   1.0000   1.0000   1.0000   1.0000   1.0000
     1.0000   1.0000   1.0000   1.0000   1.0000   1.0000   1.0000   1.0000
     1.0000   1.0000   1.0000   1.0000   1.0000   1.0000   1.0000   1.0000
     1.0000   1.0000   1.0000   1.0000   1.0000   1.0000   1.0000   1.0000
     1.0000   1.0000   1.0000   1.0000   1.0000   1.0000   1.0000   1.0000
     1.0000   1.0000   1.0000   1.0000   1.0000   1.0000   1.0000   1.0000
     1.0000   1.0000   1.0000   1.0000   1.0000   1.0000   1.0000   1.0000
     1.0000   1.0000   1.0000   1.0000   1.0000   1.0000   1.0000   1.0000
     1.0000   1.0000   1.0000   1.0000   1.0000   1.0000   1.0000   1.0000
     1.0000   1.0000   1.0000   1.0000   1.0000   1.0000   1.0000   1.0000
     1.0000   1.0000   1.0000   1.0000   1.0000   1.0000   1.0000   1.0000
     1.0000   1.0000   1.0000   1.0000   1.0000   1.0000   1.0000   1.0000
     1.0000   1.0000   1.0000   1.0000   1.0000   1.0000   1.0000   1.0000
     1.0000   1.0000   1.0000   1.0000   1.0000   1.0000   1.0000   1.0000
     1.0000   1.0000   1.0000   1.0000   1.0000   1.0000   1.0000   1.0000
     1.0000   1.0000   1.0000   1.0000   1.0000   1.0000   1.0000   1.0000
     1.0000   1.0000   1.0000   1.0000   1.0000   1.0000   1.0000   1.0000
     1.0000   1.0000   1.0000   1.0000   1.0000   1.0000   1.0000   1.0000
     1.0000   1.0000   1.0000   1.0000   1.0000   1.0000   1.0000   1.0000
     1.0000   1.0000   1.0000   1.0000   1.0000   1.0000   1.0000   1.0000
[...]
     atom   84 type  2   force =     0.00007205   -0.00007481    0.00024468
     atom   85 type  3   force =     0.00015078   -0.00021418   -0.00025857
     atom   86 type  2   force =    -0.00039247    0.00034768   -0.00000122
     atom   87 type  3   force =    -0.00194787   -0.00153426   -0.00500583
     atom   88 type  3   force =    -0.00341379    0.00282474   -0.00144564
     atom   89 type  1   force =     0.00033810    0.00535552   -0.00149710
     atom   90 type  3   force =    -0.00045774   -0.00189614    0.00484887
     atom   91 type  2   force =    -0.00005643    0.00033800    0.00035914
     atom   92 type  2   force =     0.00029101   -0.00035949   -0.00003734
     atom   93 type  2   force =    -0.00008358    0.00021660   -0.00011753
     atom   94 type  2   force =    -0.00007973    0.00069946   -0.00031450
     atom   95 type  2   force =    -0.00019406   -0.00017217    0.00014873
     atom   96 type  3   force =     0.00005861    0.00081030   -0.00170090
     atom   97 type  3   force =     0.00026066    0.00037297    0.00018971
     atom   98 type  2   force =    -0.00006811   -0.00018781    0.00033436
     atom   99 type  2   force =    -0.00002094    0.00011867   -0.00038143
     atom  100 type  3   force =    -0.00248795   -0.00207528   -0.00061775
     The Hubbard contrib.    to forces
     atom    1 type  2   force =     0.00000000    0.00000000    0.00000000
     atom    2 type  3   force =     0.00000000    0.00000000    0.00000000
     atom    3 type  2   force =     0.00000000    0.00000000    0.00000000
     atom    4 type  2   force =     0.00000000    0.00000000    0.00000000
     atom    5 type  3   force =     0.00000000    0.00000000    0.00000000
     atom    6 type  2   force =     0.00000000    0.00000000    0.00000000
     atom    7 type  2   force =     0.00000000    0.00000000    0.00000000
     atom    8 type  2   force =     0.00000000    0.00000000    0.00000000
     atom    9 type  3   force =     0.00000000    0.00000000    0.00000000
     atom   10 type  2   force =     0.00000000    0.00000000    0.00000000
     atom   11 type  3   force =     0.00000000    0.00000000    0.00000000
     atom   12 type  3   force =     0.00000000    0.00000000    0.00000000
     atom   13 type  3   force =     0.00000000    0.00000000    0.00000000
     atom   14 type  3   force =     0.00000000    0.00000000    0.00000000
     atom   15 type  2   force =     0.00000000    0.00000000    0.00000000
     atom   16 type  3   force =     0.00000000    0.00000000    0.00000000
     atom   17 type  2   force =     0.00000000    0.00000000    0.00000000
     atom   18 type  2   force =     0.00000000    0.00000000    0.00000000
     atom   19 type  3   force =     0.00000000    0.00000000    0.00000000
     atom   20 type  2   force =     0.00000000    0.00000000    0.00000000
     atom   21 type  2   force =     0.00000000    0.00000000    0.00000000
     atom   22 type  2   force =     0.00000000    0.00000000    0.00000000
     atom   23 type  3   force =     0.00000000    0.00000000    0.00000000
     atom   24 type  2   force =     0.00000000    0.00000000    0.00000000
     atom   25 type  2   force =     0.00000000    0.00000000    0.00000000
     atom   26 type  3   force =     0.00000000    0.00000000    0.00000000
     atom   27 type  2   force =     0.00000000    0.00000000    0.00000000
     atom   28 type  2   force =     0.00000000    0.00000000    0.00000000
     atom   29 type  3   force =     0.00000000    0.00000000    0.00000000
     atom   30 type  2   force =     0.00000000    0.00000000    0.00000000
     atom   31 type  3   force =     0.00000000    0.00000000    0.00000000
     atom   32 type  3   force =     0.00000000    0.00000000    0.00000000
     atom   33 type  3   force =     0.00000000    0.00000000    0.00000000
     atom   34 type  1   force =     0.00000000    0.00000000    0.00000000
     atom   35 type  2   force =     0.00000000    0.00000000    0.00000000
     atom   36 type  2   force =     0.00000000    0.00000000    0.00000000
     atom   37 type  3   force =     0.00000000    0.00000000    0.00000000
     atom   38 type  3   force =     0.00000000    0.00000000    0.00000000
     atom   39 type  2   force =     0.00000000    0.00000000    0.00000000
     atom   40 type  3   force =     0.00000000    0.00000000    0.00000000
     atom   41 type  3   force =     0.00000000    0.00000000    0.00000000
     atom   42 type  3   force =     0.00000000    0.00000000    0.00000000
     atom   43 type  2   force =     0.00000000    0.00000000    0.00000000
     atom   44 type  3   force =     0.00000000    0.00000000    0.00000000
     atom   45 type  2   force =     0.00000000    0.00000000    0.00000000
     atom   46 type  3   force =     0.00000000    0.00000000    0.00000000
     atom   47 type  3   force =     0.00000000    0.00000000    0.00000000
     atom   48 type  3   force =     0.00000000    0.00000000    0.00000000
     atom   49 type  2   force =     0.00000000    0.00000000    0.00000000
     atom   50 type  3   force =     0.00000000    0.00000000    0.00000000
     atom   51 type  3   force =     0.00000000    0.00000000    0.00000000
     atom   52 type  3   force =     0.00000000    0.00000000    0.00000000
     atom   53 type  2   force =     0.00000000    0.00000000    0.00000000
     atom   54 type  3   force =     0.00000000    0.00000000    0.00000000
     atom   55 type  3   force =     0.00000000    0.00000000    0.00000000
     atom   56 type  2   force =     0.00000000    0.00000000    0.00000000
     atom   57 type  3   force =     0.00000000    0.00000000    0.00000000
     atom   58 type  2   force =     0.00000000    0.00000000    0.00000000
     atom   59 type  3   force =     0.00000000    0.00000000    0.00000000
     atom   60 type  3   force =     0.00000000    0.00000000    0.00000000
     atom   61 type  2   force =     0.00000000    0.00000000    0.00000000
     atom   62 type  3   force =     0.00000000    0.00000000    0.00000000
     atom   63 type  2   force =     0.00000000    0.00000000    0.00000000
     atom   64 type  2   force =     0.00000000    0.00000000    0.00000000
     atom   65 type  3   force =     0.00000000    0.00000000    0.00000000
     atom   66 type  2   force =     0.00000000    0.00000000    0.00000000
     atom   67 type  2   force =     0.00000000    0.00000000    0.00000000
     atom   68 type  2   force =     0.00000000    0.00000000    0.00000000
     atom   69 type  2   force =     0.00000000    0.00000000    0.00000000
     atom   70 type  3   force =     0.00000000    0.00000000    0.00000000
     atom   71 type  2   force =     0.00000000    0.00000000    0.00000000
     atom   72 type  2   force =     0.00000000    0.00000000    0.00000000
     atom   73 type  3   force =     0.00000000    0.00000000    0.00000000
     atom   74 type  2   force =     0.00000000    0.00000000    0.00000000
     atom   75 type  2   force =     0.00000000    0.00000000    0.00000000
     atom   76 type  3   force =     0.00000000    0.00000000    0.00000000
     atom   77 type  3   force =     0.00000000    0.00000000    0.00000000
     atom   78 type  2   force =     0.00000000    0.00000000    0.00000000
     atom   79 type  3   force =     0.00000000    0.00000000    0.00000000
     atom   80 type  2   force =     0.00000000    0.00000000    0.00000000
     atom   81 type  3   force =     0.00000000    0.00000000    0.00000000
     atom   82 type  3   force =     0.00000000    0.00000000    0.00000000
     atom   83 type  3   force =     0.00000000    0.00000000    0.00000000
     atom   84 type  2   force =     0.00000000    0.00000000    0.00000000
     atom   85 type  3   force =     0.00000000    0.00000000    0.00000000
     atom   86 type  2   force =     0.00000000    0.00000000    0.00000000
     atom   87 type  3   force =     0.00000000    0.00000000    0.00000000
     atom   88 type  3   force =     0.00000000    0.00000000    0.00000000
     atom   89 type  1   force =     0.00000000    0.00000000    0.00000000
     atom   90 type  3   force =     0.00000000    0.00000000    0.00000000
     atom   91 type  2   force =     0.00000000    0.00000000    0.00000000
     atom   92 type  2   force =     0.00000000    0.00000000    0.00000000
     atom   93 type  2   force =     0.00000000    0.00000000    0.00000000
     atom   94 type  2   force =     0.00000000    0.00000000    0.00000000
     atom   95 type  2   force =     0.00000000    0.00000000    0.00000000
     atom   96 type  3   force =     0.00000000    0.00000000    0.00000000
     atom   97 type  3   force =     0.00000000    0.00000000    0.00000000
     atom   98 type  2   force =     0.00000000    0.00000000    0.00000000
     atom   99 type  2   force =     0.00000000    0.00000000    0.00000000
     atom  100 type  3   force =     0.00000000    0.00000000    0.00000000
     The SCF correction term to forces
     atom    1 type  2   force =     0.00002353    0.00028398   -0.00010342
     atom    2 type  3   force =     0.00045012   -0.00042604   -0.00004030
     atom    3 type  2   force =     0.00026356   -0.00010465   -0.00056628
     atom    4 type  2   force =    -0.00070144   -0.00040320    0.00007142
     atom    5 type  3   force =    -0.00070596   -0.00038668    0.00035937
     atom    6 type  2   force =     0.00014019   -0.00070221    0.00025711
     atom    7 type  2   force =    -0.00073171   -0.00045119    0.00037901
     atom    8 type  2   force =     0.00048997    0.00102499    0.00024739
     atom    9 type  3   force =    -0.00073542    0.00027890   -0.00024073
     atom   10 type  2   force =     0.00049594    0.00066607   -0.00051237
     atom   11 type  3   force =    -0.00023106    0.00055062   -0.00023699
     atom   12 type  3   force =    -0.00043571    0.00043340   -0.00012304
     atom   13 type  3   force =    -0.00039579    0.00042084    0.00029355
     atom   14 type  3   force =    -0.00007452    0.00070119    0.00021461
     atom   15 type  2   force =    -0.00052935    0.00116466    0.00023375
     atom   16 type  3   force =    -0.00026933   -0.00019422   -0.00006120
     atom   17 type  2   force =    -0.00059193   -0.00062595   -0.00033197
     atom   18 type  2   force =    -0.00065575   -0.00025816    0.00043750
     atom   19 type  3   force =     0.00012255   -0.00014774    0.00032151
     atom   20 type  2   force =    -0.00087757    0.00025726    0.00055681
     atom   21 type  2   force =    -0.00093930   -0.00099774    0.00019931
     atom   22 type  2   force =    -0.00027479   -0.00079472   -0.00064426
     atom   23 type  3   force =     0.00015883   -0.00046462   -0.00031819
     atom   24 type  2   force =    -0.00077961   -0.00098541    0.00068591
     atom   25 type  2   force =     0.00008425   -0.00120258    0.00043964
     atom   26 type  3   force =     0.00077663    0.00010646    0.00000918
     atom   27 type  2   force =     0.00102353   -0.00031634    0.00004848
     atom   28 type  2   force =     0.00144088   -0.00043137   -0.00085822
     atom   29 type  3   force =     0.00030466    0.00023729   -0.00030181
     atom   30 type  2   force =     0.00086651    0.00067018    0.00029840
     atom   31 type  3   force =     0.00068760   -0.00051003    0.00025418
     atom   32 type  3   force =     0.00045181    0.00003427    0.00049401
     atom   33 type  3   force =     0.00058706    0.00046920    0.00019395
     atom   34 type  1   force =     0.00015015    0.00008672   -0.00005055
     atom   35 type  2   force =     0.00125695    0.00055265   -0.00078813
     atom   36 type  2   force =     0.00068864    0.00080271   -0.00028144
     atom   37 type  3   force =     0.00069008    0.00076001    0.00000831
     atom   38 type  3   force =     0.00039029    0.00078351    0.00026250
     atom   39 type  2   force =     0.00064031    0.00066168   -0.00013760
     atom   40 type  3   force =     0.00036451    0.00007148   -0.00028245
     atom   41 type  3   force =     0.00060000    0.00026784   -0.00010406
     atom   42 type  3   force =     0.00044151   -0.00019960    0.00007074
     atom   43 type  2   force =     0.00107323    0.00016062    0.00029891
     atom   44 type  3   force =     0.00046293   -0.00019377    0.00008836
     atom   45 type  2   force =     0.00068460   -0.00057356   -0.00008801
     atom   46 type  3   force =     0.00056589   -0.00047488    0.00037310
     atom   47 type  3   force =     0.00068842   -0.00029048   -0.00025145
     atom   48 type  3   force =     0.00070568   -0.00063191   -0.00029670
     atom   49 type  2   force =     0.00092594   -0.00136310    0.00027723
     atom   50 type  3   force =     0.00005864   -0.00077363    0.00030170
     atom   51 type  3   force =     0.00048934    0.00007899    0.00044056
     atom   52 type  3   force =    -0.00047170   -0.00009981   -0.00010515
     atom   53 type  2   force =     0.00097785   -0.00012501   -0.00077681
     atom   54 type  3   force =     0.00074698    0.00008194   -0.00036479
     atom   55 type  3   force =     0.00031967    0.00004004    0.00025439
     atom   56 type  2   force =     0.00001241    0.00042457   -0.00009017
     atom   57 type  3   force =     0.00025983    0.00018388   -0.00017993
     atom   58 type  2   force =     0.00061653    0.00071849   -0.00035444
     atom   59 type  3   force =    -0.00009801    0.00055269    0.00009224
     atom   60 type  3   force =    -0.00008879    0.00046079    0.00020024
     atom   61 type  2   force =     0.00120485    0.00102577    0.00056995
     atom   62 type  3   force =     0.00040092    0.00001230   -0.00009405
     atom   63 type  2   force =     0.00005999    0.00028702   -0.00023928
     atom   64 type  2   force =     0.00004080   -0.00020742   -0.00023087
     atom   65 type  3   force =     0.00008486    0.00024843    0.00014480
     atom   66 type  2   force =     0.00081048    0.00095716    0.00017600
     atom   67 type  2   force =     0.00025978    0.00014722   -0.00003321
     atom   68 type  2   force =     0.00033447   -0.00064414    0.00006565
     atom   69 type  2   force =     0.00013906   -0.00026394    0.00000672
     atom   70 type  3   force =     0.00015401   -0.00028378   -0.00039774
     atom   71 type  2   force =     0.00090683   -0.00077848   -0.00001407
     atom   72 type  2   force =     0.00065408   -0.00099443   -0.00028526
     atom   73 type  3   force =     0.00028601   -0.00053635    0.00009532
     atom   74 type  2   force =     0.00040393   -0.00076910    0.00047078
     atom   75 type  2   force =    -0.00098232    0.00028534   -0.00000633
     atom   76 type  3   force =    -0.00064795   -0.00032330   -0.00024402
     atom   77 type  3   force =    -0.00048714    0.00009999   -0.00032147
     atom   78 type  2   force =    -0.00134556   -0.00018807   -0.00039057
     atom   79 type  3   force =    -0.00057577   -0.00014404   -0.00005662
     atom   80 type  2   force =    -0.00118629    0.00037120    0.00045531
     atom   81 type  3   force =    -0.00058702   -0.00017551    0.00019210
     atom   82 type  3   force =    -0.00071431    0.00039391   -0.00000365
     atom   83 type  3   force =    -0.00064946    0.00040305   -0.00025462
     atom   84 type  2   force =    -0.00094008    0.00074292   -0.00009184
     atom   85 type  3   force =    -0.00076292    0.00038481    0.00003869
     atom   86 type  2   force =    -0.00117157    0.00107052    0.00040633
     atom   87 type  3   force =    -0.00053254    0.00036059   -0.00005309
     atom   88 type  3   force =    -0.00026092   -0.00015049   -0.00019272
     atom   89 type  1   force =    -0.00013329   -0.00000754   -0.00008358
     atom   90 type  3   force =    -0.00066254   -0.00008775   -0.00002591
     atom   91 type  2   force =    -0.00116973    0.00075567    0.00033284
     atom   92 type  2   force =    -0.00103616   -0.00054141    0.00048003
     atom   93 type  2   force =    -0.00050640    0.00049544    0.00022754
     atom   94 type  2   force =    -0.00095266   -0.00070183   -0.00046798
     atom   95 type  2   force =    -0.00054743   -0.00051845   -0.00000772
     atom   96 type  3   force =    -0.00076541   -0.00035827   -0.00029336
     atom   97 type  3   force =    -0.00071353   -0.00054357    0.00014249
     atom   98 type  2   force =    -0.00056458   -0.00080756    0.00001217
     atom   99 type  2   force =    -0.00060514   -0.00099064    0.00044207
     atom  100 type  3   force =    -0.00040497   -0.00042395    0.00013715

     Total force =     0.754580     Total SCF correction =     0.009149

     Writing output data file Zr49Cu49Al2.save
 
     init_run     :     24.92s CPU     25.59s WALL (       1 calls)
     electrons    :   4229.19s CPU   4309.04s WALL (       1 calls)
     forces       :     17.35s CPU     17.85s WALL (       1 calls)

     Called by init_run:
     wfcinit      :     21.10s CPU     21.40s WALL (       1 calls)
     wfcinit:atom :      0.04s CPU      0.07s WALL (       1 calls)
     wfcinit:wfcr :     20.87s CPU     21.08s WALL (       1 calls)
     potinit      :      0.72s CPU      0.78s WALL (       1 calls)

     Called by electrons:
     c_bands      :   3699.20s CPU   3750.18s WALL (      51 calls)
     sum_band     :    445.08s CPU    460.77s WALL (      51 calls)
     v_of_rho     :     13.17s CPU     13.85s WALL (      52 calls)
     v_h          :      1.26s CPU      1.30s WALL (      52 calls)
     v_xc         :     12.14s CPU     12.79s WALL (      53 calls)
     newd         :     57.52s CPU     69.06s WALL (      52 calls)
     PAW_pot      :      9.11s CPU      9.45s WALL (      52 calls)
     mix_rho      :      3.40s CPU      3.67s WALL (      51 calls)

     Called by c_bands:
     init_us_2    :      6.23s CPU      6.30s WALL (     103 calls)
     cegterg      :   3365.66s CPU   3407.50s WALL (      51 calls)

     Called by sum_band:
     sum_band:bec :      1.44s CPU      1.44s WALL (      51 calls)
     addusdens    :     68.29s CPU     80.76s WALL (      51 calls)

     Called by *egterg:
     h_psi        :   1200.43s CPU   1208.98s WALL (     130 calls)
     s_psi        :    313.15s CPU    314.73s WALL (     130 calls)
     g_psi        :      1.89s CPU      1.89s WALL (      78 calls)
     cdiaghg      :    959.59s CPU    973.33s WALL (     129 calls)
     cegterg:over :    367.81s CPU    371.26s WALL (      78 calls)
     cegterg:upda :    209.87s CPU    210.72s WALL (      78 calls)
     cegterg:last :    188.45s CPU    188.52s WALL (      51 calls)
     cdiaghg:chol :     48.23s CPU     48.70s WALL (     129 calls)
     cdiaghg:inve :     56.21s CPU     56.57s WALL (     129 calls)
     cdiaghg:para :    143.94s CPU    149.90s WALL (     258 calls)

     Called by h_psi:
     h_psi:pot    :   1194.17s CPU   1202.71s WALL (     130 calls)
     h_psi:calbec :    301.97s CPU    302.85s WALL (     130 calls)
     vloc_psi     :    585.33s CPU    591.73s WALL (     130 calls)
     add_vuspsi   :    306.87s CPU    308.12s WALL (     130 calls)

     General routines
     calbec       :    458.53s CPU    460.51s WALL (     185 calls)
     fft          :     16.92s CPU     17.70s WALL (     839 calls)
     ffts         :      0.32s CPU      0.33s WALL (     103 calls)
     fftw         :    531.03s CPU    536.35s WALL (  285442 calls)
     interpolate  :      2.63s CPU      2.79s WALL (     103 calls)
 
     Parallel routines
     fft_scatt_xy :     36.17s CPU     36.37s WALL (  286384 calls)
     fft_scatt_yz :    123.49s CPU    125.52s WALL (  286384 calls)

     PAW routines
     PAW_pot      :      9.11s CPU      9.45s WALL (      52 calls)
 
     PWSCF        :     1h11m CPU        1h18m WALL

 
   This run was terminated on:  20:10: 3  19Apr2019            

=------------------------------------------------------------------------------=
   JOB DONE.
=------------------------------------------------------------------------------=
