
     Program PWSCF v.6.2 (svn rev. 13949:13950) starts on 19Apr2019 at 17:30: 1 

     This program is part of the open-source Quantum ESPRESSO suite
     for quantum simulation of materials; please cite
         "P. Giannozzi et al., J. Phys.:Condens. Matter 21 395502 (2009);
         "P. Giannozzi et al., J. Phys.:Condens. Matter 29 465901 (2017);
          URL http://www.quantum-espresso.org", 
     in publications or presentations arising from this work. More details at
     http://www.quantum-espresso.org/quote

     Parallel version (MPI & OpenMP), running on     192 processor cores
     Number of MPI processes:               192
     Threads/MPI process:                     1

     MPI processes distributed on     8 nodes
     K-points division:     npool     =       8
     R & G space division:  proc/nbgrp/npool/nimage =      24
     Waiting for input...
     Reading input from standard input

     Current dimensions of program PWSCF are:
     Max number of different atomic species (ntypx) = 10
     Max number of k-points (npk) =  40000
     Max angular momentum in pseudopotentials (lmaxx) =  3
               file Al.aryjr-1.0.0-ld1.UPF: wavefunction(s)  3S 3P renormalized
               file Cu.aryjr-1.0.0-ld1.UPF: wavefunction(s)  4S 3P 3D renormalized
               file Zr.aryjr-1.0.0-ld1.UPF: wavefunction(s)  4S 4P renormalized

     Subspace diagonalization in iterative solution of the eigenvalue problem:
     one sub-group per band group will be used
     scalapack distributed-memory algorithm (size of sub-group:  3*  3 procs)

 
     Parallelization info
     --------------------
     sticks:   dense  smooth     PW     G-vecs:    dense   smooth      PW
     Min         979     489    125               111711    39497    5149
     Max         980     490    126               111716    39500    5154
     Sum       23497   11743   3015              2681107   947955  123651
 

     Title: 
     Zr49Cu49Al2                                                                


     bravais-lattice index     =            0
     lattice parameter (alat)  =      22.7304  a.u.
     unit-cell volume          =   11979.0538 (a.u.)^3
     number of atoms/cell      =          100
     number of atomic types    =            3
     number of electrons       =      1525.00
     number of Kohn-Sham states=         1086
     kinetic-energy cutoff     =      70.0000  Ry
     charge density cutoff     =     560.0000  Ry
     convergence threshold     =      1.0E-06
     mixing beta               =       0.4000
     number of iterations used =            8  plain     mixing
     Exchange-correlation      =  SLA  PW   PBX  PBC ( 1  4  3  4 0 0)

     celldm(1)=  22.730420  celldm(2)=   0.000000  celldm(3)=   0.000000
     celldm(4)=   0.000000  celldm(5)=   0.000000  celldm(6)=   0.000000

     crystal axes: (cart. coord. in units of alat)
               a(1) = (   1.000000   0.000000   0.000000 )  
               a(2) = (   0.000000   1.020000   0.000000 )  
               a(3) = (   0.000000   0.000000   1.000000 )  

     reciprocal axes: (cart. coord. in units 2 pi/alat)
               b(1) = (  1.000000  0.000000  0.000000 )  
               b(2) = (  0.000000  0.980392  0.000000 )  
               b(3) = (  0.000000  0.000000  1.000000 )  


     PseudoPot. # 1 for Al read from file:
     /scratch/rmnvm/ary.junior/UPFs/Al.aryjr-1.0.0-ld1.UPF
     MD5 check sum: 23518be3108914e66f28d0b5ae5ea896
     Pseudo is Projector augmented-wave + core cor, Zval =  3.0
     Generated using "atomic" code by A. Dal Corso  v.5.3.0 svn rev. 11974
     Shape of augmentation charge: PSQ
     Using radial grid of 1135 points,  4 beta functions with: 
                l(1) =   0
                l(2) =   0
                l(3) =   1
                l(4) =   1
     Q(r) pseudized with 0 coefficients 


     PseudoPot. # 2 for Cu read from file:
     /scratch/rmnvm/ary.junior/UPFs/Cu.aryjr-1.0.0-ld1.UPF
     MD5 check sum: 9308548b6d8348cb0f7fa79efd90ef1e
     Pseudo is Projector augmented-wave + core cor, Zval = 19.0
     Generated using "atomic" code by A. Dal Corso  v.5.3.0 svn rev. 11974
     Shape of augmentation charge: PSQ
     Using radial grid of 1199 points,  6 beta functions with: 
                l(1) =   0
                l(2) =   0
                l(3) =   1
                l(4) =   1
                l(5) =   2
                l(6) =   2
     Q(r) pseudized with 0 coefficients 


     PseudoPot. # 3 for Zr read from file:
     /scratch/rmnvm/ary.junior/UPFs/Zr.aryjr-1.0.0-ld1.UPF
     MD5 check sum: 20f111a850f3481eb9ed9a4dbb9cca44
     Pseudo is Projector augmented-wave + core cor, Zval = 12.0
     Generated using "atomic" code by A. Dal Corso  v.5.3.0 svn rev. 11974
     Shape of augmentation charge: PSQ
     Using radial grid of 1225 points,  6 beta functions with: 
                l(1) =   0
                l(2) =   0
                l(3) =   1
                l(4) =   1
                l(5) =   2
                l(6) =   2
     Q(r) pseudized with 0 coefficients 


     atomic species   valence    mass     pseudopotential
        Al             3.00    26.98150     Al( 1.00)
        Cu            19.00    63.54630     Cu( 1.00)
        Zr            12.00    91.22400     Zr( 1.00)

     No symmetry found


                                    s                        frac. trans.

      isym =  1     identity                                     

 cryst.   s( 1) = (     1          0          0      )
                  (     0          1          0      )
                  (     0          0          1      )

 cart.    s( 1) = (  1.0000000  0.0000000  0.0000000 )
                  (  0.0000000  1.0000000  0.0000000 )
                  (  0.0000000  0.0000000  1.0000000 )


   Cartesian axes

     site n.     atom                  positions (alat units)
         1           Cu  tau(   1) = (   0.1532540   0.2323142   0.1567850  )
         2           Zr  tau(   2) = (   0.2632450  -0.0193871   0.1788030  )
         3           Cu  tau(   3) = (   0.1770600   0.1341932   0.3373750  )
         4           Cu  tau(   4) = (   0.1041000   0.0623353   0.5913870  )
         5           Zr  tau(   5) = (   0.0179050   0.0333734   0.7957000  )
         6           Cu  tau(   6) = (   0.2603280   0.0669467   0.7428210  )
         7           Cu  tau(   7) = (   0.1177750   0.1044184   0.9862360  )
         8           Cu  tau(   8) = (   0.2607600   0.3620826   0.0459350  )
         9           Zr  tau(   9) = (  -0.0132520   0.2772085   0.3065150  )
        10           Cu  tau(  10) = (   0.2185700   0.3351312   0.3368330  )
        11           Zr  tau(  11) = (   0.1152240   0.4793225   0.1643430  )
        12           Zr  tau(  12) = (   0.0615040   0.5051305   0.4343910  )
        13           Zr  tau(  13) = (   0.1385390   0.2573674   0.8065140  )
        14           Zr  tau(  14) = (   0.1772030   0.4698079   0.6620950  )
        15           Cu  tau(  15) = (   0.1140550   0.4890798   0.9306380  )
        16           Zr  tau(  16) = (   0.1178980   0.7137419   0.0172560  )
        17           Cu  tau(  17) = (   0.0775240   0.7470816   0.4191720  )
        18           Cu  tau(  18) = (   0.0595990   0.6784724   0.6132270  )
        19           Zr  tau(  19) = (   0.2258380   0.6871893   0.7857960  )
        20           Cu  tau(  20) = (  -0.0091150   0.6223928   0.8077750  )
        21           Cu  tau(  21) = (   0.0411810   0.9396117  -0.0202190  )
        22           Cu  tau(  22) = (   0.1181520   0.8395140   0.2237520  )
        23           Zr  tau(  23) = (   0.1762560   0.9435132   0.4308390  )
        24           Cu  tau(  24) = (   0.0470770   0.8202126   0.7956290  )
        25           Cu  tau(  25) = (   0.1929970   0.8935598   0.6704530  )
        26           Zr  tau(  26) = (   0.3771530   0.2280700   0.2105170  )
        27           Cu  tau(  27) = (   0.5030380   0.0378032   0.2382310  )
        28           Cu  tau(  28) = (   0.3667550   0.0688561   0.3843810  )
        29           Zr  tau(  29) = (   0.2658580   0.2232760   0.5456370  )
        30           Cu  tau(  30) = (   0.3727640   0.2314890   0.7541460  )
        31           Zr  tau(  31) = (   0.4909010   0.0271881   0.8215010  )
        32           Zr  tau(  32) = (   0.3344380   0.1569362   0.9755560  )
        33           Zr  tau(  33) = (   0.5010310   0.4260254   0.0356180  )
        34           Al  tau(  34) = (   0.3891260   0.4631993   0.2506940  )
        35           Cu  tau(  35) = (   0.4270120   0.3360900   0.4181220  )
        36           Cu  tau(  36) = (   0.2812900   0.4881903   0.4547210  )
        37           Zr  tau(  37) = (   0.4431220   0.4298229   0.6301280  )
        38           Zr  tau(  38) = (   0.3330890   0.4634482   0.8486030  )
        39           Cu  tau(  39) = (   0.3161030   0.5566109   0.0742360  )
        40           Zr  tau(  40) = (   0.2556010   0.6565352   0.3018270  )
        41           Zr  tau(  41) = (   0.4786970   0.5891438   0.4392130  )
        42           Zr  tau(  42) = (   0.2806530   0.7091223   0.5536880  )
        43           Cu  tau(  43) = (   0.4540980   0.6466565   0.6937910  )
        44           Zr  tau(  44) = (   0.4302580   0.7032114   0.9390530  )
        45           Cu  tau(  45) = (   0.3223560   0.7812149   0.1068750  )
        46           Zr  tau(  46) = (   0.4766140   0.9509766   0.0524910  )
        47           Zr  tau(  47) = (   0.4135570   0.8446222   0.3415760  )
        48           Zr  tau(  48) = (   0.3922520   0.9873222   0.5853350  )
        49           Cu  tau(  49) = (   0.3999990   0.8361021   0.7561930  )
        50           Zr  tau(  50) = (   0.2492660   0.9259233   0.9111820  )
        51           Zr  tau(  51) = (   0.5957130   0.1674004   0.0496730  )
        52           Zr  tau(  52) = (   0.7575530   0.0812940   0.2343880  )
        53           Cu  tau(  53) = (   0.5410490   0.1762774   0.3663910  )
        54           Zr  tau(  54) = (   0.5357240   0.1855615   0.5991130  )
        55           Zr  tau(  55) = (   0.6936450   0.1380652   0.7999840  )
        56           Cu  tau(  56) = (   0.6996980   0.5037545   0.1236250  )
        57           Zr  tau(  57) = (   0.6154380   0.3566083   0.2608670  )
        58           Cu  tau(  58) = (   0.6163860   0.3905692   0.4899580  )
        59           Zr  tau(  59) = (   0.7406390   0.3494306   0.6748370  )
        60           Zr  tau(  60) = (   0.7412480   0.3647214   0.9376560  )
        61           Cu  tau(  61) = (   0.5350970   0.3002207   0.8319010  )
        62           Zr  tau(  62) = (   0.5219300   0.6734682   0.1802780  )
        63           Cu  tau(  63) = (   0.6764360   0.5531113   0.3511770  )
        64           Cu  tau(  64) = (   0.6518880   0.7640636   0.3811960  )
        65           Zr  tau(  65) = (   0.6685970   0.5906759   0.6194550  )
        66           Cu  tau(  66) = (   0.5727900   0.5182314   0.8178100  )
        67           Cu  tau(  67) = (   0.6643170   0.6209668   0.9696280  )
        68           Cu  tau(  68) = (   0.6453030   0.8068914   0.0288590  )
        69           Cu  tau(  69) = (   0.6369180   0.9045727   0.2400110  )
        70           Zr  tau(  70) = (   0.6303260   0.9955179   0.4397490  )
        71           Cu  tau(  71) = (   0.5295050   0.7950788   0.5795060  )
        72           Cu  tau(  72) = (   0.6242650   0.9803699   0.6522980  )
        73           Zr  tau(  73) = (   0.6264570   0.7810303   0.7858100  )
        74           Cu  tau(  74) = (   0.6866730   0.9717856   0.9360050  )
        75           Cu  tau(  75) = (   0.7980740   0.2740903   0.1298460  )
        76           Zr  tau(  76) = (   1.0111800   0.0300472   0.1891070  )
        77           Zr  tau(  77) = (   0.7674370   0.2295581   0.4300980  )
        78           Cu  tau(  78) = (   0.9704410   0.0897784   0.4356580  )
        79           Zr  tau(  79) = (   0.8233740   0.0739398   0.6018010  )
        80           Cu  tau(  80) = (   0.8934150   0.2241022   0.8001380  )
        81           Zr  tau(  81) = (   0.8687050   0.0866725   0.9774930  )
        82           Zr  tau(  82) = (   0.9982840   0.2999881   0.0350030  )
        83           Zr  tau(  83) = (   0.8616490   0.4702006   0.2520130  )
        84           Cu  tau(  84) = (   0.8132930   0.4437999   0.4791560  )
        85           Zr  tau(  85) = (   0.9981660   0.2807876   0.5806030  )
        86           Cu  tau(  86) = (   0.9756890   0.4119209   0.8175500  )
        87           Zr  tau(  87) = (   0.9133460   0.5594241   0.0248790  )
        88           Zr  tau(  88) = (   0.7753420   0.7124159   0.1916040  )
        89           Al  tau(  89) = (   1.0048900   0.6679725   0.2477300  )
        90           Zr  tau(  90) = (   0.8636860   0.6667934   0.4614320  )
        91           Cu  tau(  91) = (   0.9239290   0.5080977   0.6420570  )
        92           Cu  tau(  92) = (   0.8484040   0.7321927   0.7012020  )
        93           Cu  tau(  93) = (   0.7838010   0.5671485   0.8199790  )
        94           Cu  tau(  94) = (   0.9491700   0.8173015   0.1273720  )
        95           Cu  tau(  95) = (   0.7960670   0.9283305   0.1001260  )
        96           Zr  tau(  96) = (   0.8820060   0.8903610   0.3447760  )
        97           Zr  tau(  97) = (   0.9756070   0.8910587   0.5854800  )
        98           Cu  tau(  98) = (   0.7438140   0.8404892   0.5722210  )
        99           Cu  tau(  99) = (   0.8036460   0.9351462   0.7614030  )
       100           Zr  tau( 100) = (   0.8574510   0.7932009   0.9154230  )

   Crystallographic axes

     site n.     atom                  positions (cryst. coord.)
         1           Cu  tau(   1) = (  0.1532540  0.2277590  0.1567850  )
         2           Zr  tau(   2) = (  0.2632450 -0.0190070  0.1788030  )
         3           Cu  tau(   3) = (  0.1770600  0.1315620  0.3373750  )
         4           Cu  tau(   4) = (  0.1041000  0.0611130  0.5913870  )
         5           Zr  tau(   5) = (  0.0179050  0.0327190  0.7957000  )
         6           Cu  tau(   6) = (  0.2603280  0.0656340  0.7428210  )
         7           Cu  tau(   7) = (  0.1177750  0.1023710  0.9862360  )
         8           Cu  tau(   8) = (  0.2607600  0.3549830  0.0459350  )
         9           Zr  tau(   9) = ( -0.0132520  0.2717730  0.3065150  )
        10           Cu  tau(  10) = (  0.2185700  0.3285600  0.3368330  )
        11           Zr  tau(  11) = (  0.1152240  0.4699240  0.1643430  )
        12           Zr  tau(  12) = (  0.0615040  0.4952260  0.4343910  )
        13           Zr  tau(  13) = (  0.1385390  0.2523210  0.8065140  )
        14           Zr  tau(  14) = (  0.1772030  0.4605960  0.6620950  )
        15           Cu  tau(  15) = (  0.1140550  0.4794900  0.9306380  )
        16           Zr  tau(  16) = (  0.1178980  0.6997470  0.0172560  )
        17           Cu  tau(  17) = (  0.0775240  0.7324330  0.4191720  )
        18           Cu  tau(  18) = (  0.0595990  0.6651690  0.6132270  )
        19           Zr  tau(  19) = (  0.2258380  0.6737150  0.7857960  )
        20           Cu  tau(  20) = ( -0.0091150  0.6101890  0.8077750  )
        21           Cu  tau(  21) = (  0.0411810  0.9211880 -0.0202190  )
        22           Cu  tau(  22) = (  0.1181520  0.8230530  0.2237520  )
        23           Zr  tau(  23) = (  0.1762560  0.9250130  0.4308390  )
        24           Cu  tau(  24) = (  0.0470770  0.8041300  0.7956290  )
        25           Cu  tau(  25) = (  0.1929970  0.8760390  0.6704530  )
        26           Zr  tau(  26) = (  0.3771530  0.2235980  0.2105170  )
        27           Cu  tau(  27) = (  0.5030380  0.0370620  0.2382310  )
        28           Cu  tau(  28) = (  0.3667550  0.0675060  0.3843810  )
        29           Zr  tau(  29) = (  0.2658580  0.2188980  0.5456370  )
        30           Cu  tau(  30) = (  0.3727640  0.2269500  0.7541460  )
        31           Zr  tau(  31) = (  0.4909010  0.0266550  0.8215010  )
        32           Zr  tau(  32) = (  0.3344380  0.1538590  0.9755560  )
        33           Zr  tau(  33) = (  0.5010310  0.4176720  0.0356180  )
        34           Al  tau(  34) = (  0.3891260  0.4541170  0.2506940  )
        35           Cu  tau(  35) = (  0.4270120  0.3295000  0.4181220  )
        36           Cu  tau(  36) = (  0.2812900  0.4786180  0.4547210  )
        37           Zr  tau(  37) = (  0.4431220  0.4213950  0.6301280  )
        38           Zr  tau(  38) = (  0.3330890  0.4543610  0.8486030  )
        39           Cu  tau(  39) = (  0.3161030  0.5456970  0.0742360  )
        40           Zr  tau(  40) = (  0.2556010  0.6436620  0.3018270  )
        41           Zr  tau(  41) = (  0.4786970  0.5775920  0.4392130  )
        42           Zr  tau(  42) = (  0.2806530  0.6952180  0.5536880  )
        43           Cu  tau(  43) = (  0.4540980  0.6339770  0.6937910  )
        44           Zr  tau(  44) = (  0.4302580  0.6894230  0.9390530  )
        45           Cu  tau(  45) = (  0.3223560  0.7658970  0.1068750  )
        46           Zr  tau(  46) = (  0.4766140  0.9323300  0.0524910  )
        47           Zr  tau(  47) = (  0.4135570  0.8280610  0.3415760  )
        48           Zr  tau(  48) = (  0.3922520  0.9679630  0.5853350  )
        49           Cu  tau(  49) = (  0.3999990  0.8197080  0.7561930  )
        50           Zr  tau(  50) = (  0.2492660  0.9077680  0.9111820  )
        51           Zr  tau(  51) = (  0.5957130  0.1641180  0.0496730  )
        52           Zr  tau(  52) = (  0.7575530  0.0797000  0.2343880  )
        53           Cu  tau(  53) = (  0.5410490  0.1728210  0.3663910  )
        54           Zr  tau(  54) = (  0.5357240  0.1819230  0.5991130  )
        55           Zr  tau(  55) = (  0.6936450  0.1353580  0.7999840  )
        56           Cu  tau(  56) = (  0.6996980  0.4938770  0.1236250  )
        57           Zr  tau(  57) = (  0.6154380  0.3496160  0.2608670  )
        58           Cu  tau(  58) = (  0.6163860  0.3829110  0.4899580  )
        59           Zr  tau(  59) = (  0.7406390  0.3425790  0.6748370  )
        60           Zr  tau(  60) = (  0.7412480  0.3575700  0.9376560  )
        61           Cu  tau(  61) = (  0.5350970  0.2943340  0.8319010  )
        62           Zr  tau(  62) = (  0.5219300  0.6602630  0.1802780  )
        63           Cu  tau(  63) = (  0.6764360  0.5422660  0.3511770  )
        64           Cu  tau(  64) = (  0.6518880  0.7490820  0.3811960  )
        65           Zr  tau(  65) = (  0.6685970  0.5790940  0.6194550  )
        66           Cu  tau(  66) = (  0.5727900  0.5080700  0.8178100  )
        67           Cu  tau(  67) = (  0.6643170  0.6087910  0.9696280  )
        68           Cu  tau(  68) = (  0.6453030  0.7910700  0.0288590  )
        69           Cu  tau(  69) = (  0.6369180  0.8868360  0.2400110  )
        70           Zr  tau(  70) = (  0.6303260  0.9759980  0.4397490  )
        71           Cu  tau(  71) = (  0.5295050  0.7794890  0.5795060  )
        72           Cu  tau(  72) = (  0.6242650  0.9611470  0.6522980  )
        73           Zr  tau(  73) = (  0.6264570  0.7657160  0.7858100  )
        74           Cu  tau(  74) = (  0.6866730  0.9527310  0.9360050  )
        75           Cu  tau(  75) = (  0.7980740  0.2687160  0.1298460  )
        76           Zr  tau(  76) = (  1.0111800  0.0294580  0.1891070  )
        77           Zr  tau(  77) = (  0.7674370  0.2250570  0.4300980  )
        78           Cu  tau(  78) = (  0.9704410  0.0880180  0.4356580  )
        79           Zr  tau(  79) = (  0.8233740  0.0724900  0.6018010  )
        80           Cu  tau(  80) = (  0.8934150  0.2197080  0.8001380  )
        81           Zr  tau(  81) = (  0.8687050  0.0849730  0.9774930  )
        82           Zr  tau(  82) = (  0.9982840  0.2941060  0.0350030  )
        83           Zr  tau(  83) = (  0.8616490  0.4609810  0.2520130  )
        84           Cu  tau(  84) = (  0.8132930  0.4350980  0.4791560  )
        85           Zr  tau(  85) = (  0.9981660  0.2752820  0.5806030  )
        86           Cu  tau(  86) = (  0.9756890  0.4038440  0.8175500  )
        87           Zr  tau(  87) = (  0.9133460  0.5484550  0.0248790  )
        88           Zr  tau(  88) = (  0.7753420  0.6984470  0.1916040  )
        89           Al  tau(  89) = (  1.0048900  0.6548750  0.2477300  )
        90           Zr  tau(  90) = (  0.8636860  0.6537190  0.4614320  )
        91           Cu  tau(  91) = (  0.9239290  0.4981350  0.6420570  )
        92           Cu  tau(  92) = (  0.8484040  0.7178360  0.7012020  )
        93           Cu  tau(  93) = (  0.7838010  0.5560280  0.8199790  )
        94           Cu  tau(  94) = (  0.9491700  0.8012760  0.1273720  )
        95           Cu  tau(  95) = (  0.7960670  0.9101280  0.1001260  )
        96           Zr  tau(  96) = (  0.8820060  0.8729030  0.3447760  )
        97           Zr  tau(  97) = (  0.9756070  0.8735870  0.5854800  )
        98           Cu  tau(  98) = (  0.7438140  0.8240090  0.5722210  )
        99           Cu  tau(  99) = (  0.8036460  0.9168100  0.7614030  )
       100           Zr  tau( 100) = (  0.8574510  0.7776480  0.9154230  )

     number of k points=     8  Fermi-Dirac smearing, width (Ry)=  0.0080
                       cart. coord. in units 2pi/alat
        k(    1) = (   0.2500000   0.2450980   0.2500000), wk =   0.2500000
        k(    2) = (   0.2500000   0.2450980  -0.2500000), wk =   0.2500000
        k(    3) = (   0.2500000  -0.2450980   0.2500000), wk =   0.2500000
        k(    4) = (   0.2500000  -0.2450980  -0.2500000), wk =   0.2500000
        k(    5) = (  -0.2500000   0.2450980   0.2500000), wk =   0.2500000
        k(    6) = (  -0.2500000   0.2450980  -0.2500000), wk =   0.2500000
        k(    7) = (  -0.2500000  -0.2450980   0.2500000), wk =   0.2500000
        k(    8) = (  -0.2500000  -0.2450980  -0.2500000), wk =   0.2500000

                       cryst. coord.
        k(    1) = (   0.2500000   0.2500000   0.2500000), wk =   0.2500000
        k(    2) = (   0.2500000   0.2500000  -0.2500000), wk =   0.2500000
        k(    3) = (   0.2500000  -0.2500000   0.2500000), wk =   0.2500000
        k(    4) = (   0.2500000  -0.2500000  -0.2500000), wk =   0.2500000
        k(    5) = (  -0.2500000   0.2500000   0.2500000), wk =   0.2500000
        k(    6) = (  -0.2500000   0.2500000  -0.2500000), wk =   0.2500000
        k(    7) = (  -0.2500000  -0.2500000   0.2500000), wk =   0.2500000
        k(    8) = (  -0.2500000  -0.2500000  -0.2500000), wk =   0.2500000

     Dense  grid:  2681107 G-vectors     FFT dimensions: ( 180, 180, 180)

     Smooth grid:   947955 G-vectors     FFT dimensions: ( 125, 125, 125)

     Dynamical RAM for                 wfc:      81.79 MB

     Dynamical RAM for     wfc (w. buffer):      81.79 MB

     Dynamical RAM for           str. fact:       5.11 MB

     Dynamical RAM for           local pot:       0.00 MB

     Dynamical RAM for          nlocal pot:     134.06 MB

     Dynamical RAM for                qrad:      20.58 MB

     Dynamical RAM for          rho,v,vnew:      11.05 MB

     Dynamical RAM for               rhoin:       3.68 MB

     Dynamical RAM for            rho*nmix:      27.27 MB

     Dynamical RAM for           G-vectors:       6.69 MB

     Dynamical RAM for          h,s,v(r/c):      95.98 MB

     Dynamical RAM for          <psi|beta>:      29.50 MB

     Dynamical RAM for                 psi:     327.18 MB

     Dynamical RAM for                hpsi:     327.18 MB

     Dynamical RAM for                spsi:     327.18 MB

     Dynamical RAM for      wfcinit/wfcrot:     200.46 MB

     Dynamical RAM for           addusdens:     400.58 MB

     Dynamical RAM for          addusforce:     826.27 MB

     Estimated static dynamical RAM per process >     306.96 MB

     Estimated max dynamical RAM per process >       1.38 GB

     Estimated total dynamical RAM >     265.12 GB

     Initial potential from superposition of free atoms

     starting charge 1524.87645, renormalised to 1525.00000
     Starting wfc are 1135 randomized atomic wfcs
     Checking if some PAW data can be deallocated... 
       PAW data deallocated on  188 nodes for type:  1
       PAW data deallocated on   99 nodes for type:  2
       PAW data deallocated on   97 nodes for type:  3

     total cpu time spent up to now is       43.1 secs

     Self-consistent Calculation

     iteration #  1     ecut=    70.00 Ry     beta= 0.40
     Davidson diagonalization with overlap
     ethr =  1.00E-02,  avg # of iterations =  4.0

     total cpu time spent up to now is      254.6 secs

     total energy              =  -38838.41107402 Ry
     Harris-Foulkes estimate   =  -39002.74105400 Ry
     estimated scf accuracy    <     267.27418678 Ry

     iteration #  2     ecut=    70.00 Ry     beta= 0.40
     Davidson diagonalization with overlap
     ethr =  1.00E-02,  avg # of iterations =  3.0

     total cpu time spent up to now is      486.9 secs

     total energy              =  -38881.26515564 Ry
     Harris-Foulkes estimate   =  -39183.13437306 Ry
     estimated scf accuracy    <    1492.79273268 Ry

     iteration #  3     ecut=    70.00 Ry     beta= 0.40
     Davidson diagonalization with overlap
     ethr =  1.00E-02,  avg # of iterations =  3.0

     total cpu time spent up to now is      657.1 secs

     total energy              =  -38951.47379212 Ry
     Harris-Foulkes estimate   =  -39071.49073902 Ry
     estimated scf accuracy    <     924.47235930 Ry

     iteration #  4     ecut=    70.00 Ry     beta= 0.40
     Davidson diagonalization with overlap
     ethr =  1.00E-02,  avg # of iterations =  3.0

     total cpu time spent up to now is      794.5 secs

     total energy              =  -38991.43726449 Ry
     Harris-Foulkes estimate   =  -39017.30401339 Ry
     estimated scf accuracy    <     181.75157612 Ry

     iteration #  5     ecut=    70.00 Ry     beta= 0.40
     Davidson diagonalization with overlap
     ethr =  1.00E-02,  avg # of iterations =  1.0

     total cpu time spent up to now is      893.7 secs

     total energy              =  -38994.79453450 Ry
     Harris-Foulkes estimate   =  -39001.80322306 Ry
     estimated scf accuracy    <      82.62443097 Ry

     iteration #  6     ecut=    70.00 Ry     beta= 0.40
     Davidson diagonalization with overlap
     ethr =  5.42E-03,  avg # of iterations =  1.0

     total cpu time spent up to now is      992.5 secs

     total energy              =  -38993.85086782 Ry
     Harris-Foulkes estimate   =  -38998.46670252 Ry
     estimated scf accuracy    <      78.09505227 Ry

     iteration #  7     ecut=    70.00 Ry     beta= 0.40
     Davidson diagonalization with overlap
     ethr =  5.12E-03,  avg # of iterations =  1.0

     total cpu time spent up to now is     1091.3 secs

     total energy              =  -38992.22258247 Ry
     Harris-Foulkes estimate   =  -38995.39034901 Ry
     estimated scf accuracy    <      37.67687163 Ry

     iteration #  8     ecut=    70.00 Ry     beta= 0.40
     Davidson diagonalization with overlap
     ethr =  2.47E-03,  avg # of iterations =  1.0

     total cpu time spent up to now is     1190.5 secs

     total energy              =  -38990.53804300 Ry
     Harris-Foulkes estimate   =  -38993.04294904 Ry
     estimated scf accuracy    <      25.63430203 Ry

     iteration #  9     ecut=    70.00 Ry     beta= 0.40
     Davidson diagonalization with overlap
     ethr =  1.68E-03,  avg # of iterations =  1.0

     total cpu time spent up to now is     1289.3 secs

     total energy              =  -38989.59182720 Ry
     Harris-Foulkes estimate   =  -38991.58717487 Ry
     estimated scf accuracy    <      23.00993220 Ry

     iteration # 10     ecut=    70.00 Ry     beta= 0.40
     Davidson diagonalization with overlap
     ethr =  1.51E-03,  avg # of iterations =  1.0

     total cpu time spent up to now is     1388.1 secs

     total energy              =  -38988.33320385 Ry
     Harris-Foulkes estimate   =  -38990.44718570 Ry
     estimated scf accuracy    <       7.11399338 Ry

     iteration # 11     ecut=    70.00 Ry     beta= 0.40
     Davidson diagonalization with overlap
     ethr =  4.66E-04,  avg # of iterations =  4.0

     total cpu time spent up to now is     1547.4 secs

     total energy              =  -38987.79152791 Ry
     Harris-Foulkes estimate   =  -38991.33416494 Ry
     estimated scf accuracy    <      38.89110235 Ry

     iteration # 12     ecut=    70.00 Ry     beta= 0.40
     Davidson diagonalization with overlap
     ethr =  4.66E-04,  avg # of iterations =  3.0

     total cpu time spent up to now is     1670.4 secs

     total energy              =  -38988.87625233 Ry
     Harris-Foulkes estimate   =  -38990.55491529 Ry
     estimated scf accuracy    <      18.28494475 Ry

     iteration # 13     ecut=    70.00 Ry     beta= 0.40
     Davidson diagonalization with overlap
     ethr =  4.66E-04,  avg # of iterations =  2.2

     total cpu time spent up to now is     1791.2 secs

     total energy              =  -38989.50332319 Ry
     Harris-Foulkes estimate   =  -38990.16329137 Ry
     estimated scf accuracy    <       9.66378754 Ry

     iteration # 14     ecut=    70.00 Ry     beta= 0.40
     Davidson diagonalization with overlap
     ethr =  4.66E-04,  avg # of iterations =  1.0

     total cpu time spent up to now is     1890.0 secs

     total energy              =  -38989.75661066 Ry
     Harris-Foulkes estimate   =  -38989.87349553 Ry
     estimated scf accuracy    <       1.30221864 Ry

     iteration # 15     ecut=    70.00 Ry     beta= 0.40
     Davidson diagonalization with overlap
     ethr =  8.54E-05,  avg # of iterations =  1.5

     total cpu time spent up to now is     1999.2 secs

     total energy              =  -38989.77403721 Ry
     Harris-Foulkes estimate   =  -38989.87471948 Ry
     estimated scf accuracy    <       1.85223797 Ry

     iteration # 16     ecut=    70.00 Ry     beta= 0.40
     Davidson diagonalization with overlap
     ethr =  8.54E-05,  avg # of iterations =  1.0

     total cpu time spent up to now is     2098.4 secs

     total energy              =  -38989.80395709 Ry
     Harris-Foulkes estimate   =  -38989.84380291 Ry
     estimated scf accuracy    <       0.46842307 Ry

     iteration # 17     ecut=    70.00 Ry     beta= 0.40
     Davidson diagonalization with overlap
     ethr =  3.07E-05,  avg # of iterations =  6.5

     total cpu time spent up to now is     2275.8 secs

     total energy              =  -38989.75894024 Ry
     Harris-Foulkes estimate   =  -38989.89818496 Ry
     estimated scf accuracy    <       2.53016570 Ry

     iteration # 18     ecut=    70.00 Ry     beta= 0.40
     Davidson diagonalization with overlap
     ethr =  3.07E-05,  avg # of iterations =  3.0

     total cpu time spent up to now is     2396.7 secs

     total energy              =  -38989.81098253 Ry
     Harris-Foulkes estimate   =  -38989.83383488 Ry
     estimated scf accuracy    <       0.23006256 Ry

     iteration # 19     ecut=    70.00 Ry     beta= 0.40
     Davidson diagonalization with overlap
     ethr =  1.51E-05,  avg # of iterations =  2.0

     total cpu time spent up to now is     2506.4 secs

     total energy              =  -38989.81015767 Ry
     Harris-Foulkes estimate   =  -38989.83189529 Ry
     estimated scf accuracy    <       0.21680826 Ry

     iteration # 20     ecut=    70.00 Ry     beta= 0.40
     Davidson diagonalization with overlap
     ethr =  1.42E-05,  avg # of iterations =  1.0

     total cpu time spent up to now is     2605.4 secs

     total energy              =  -38989.79271206 Ry
     Harris-Foulkes estimate   =  -38989.82857528 Ry
     estimated scf accuracy    <       0.25660942 Ry

     iteration # 21     ecut=    70.00 Ry     beta= 0.40
     Davidson diagonalization with overlap
     ethr =  1.42E-05,  avg # of iterations =  5.2

     total cpu time spent up to now is     2772.1 secs

     total energy              =  -38989.74186956 Ry
     Harris-Foulkes estimate   =  -38989.88665061 Ry
     estimated scf accuracy    <       1.90390351 Ry

     iteration # 22     ecut=    70.00 Ry     beta= 0.40
     Davidson diagonalization with overlap
     ethr =  1.42E-05,  avg # of iterations =  4.8

     total cpu time spent up to now is     2923.5 secs

     total energy              =  -38989.80696136 Ry
     Harris-Foulkes estimate   =  -38989.83318689 Ry
     estimated scf accuracy    <       0.33776164 Ry

     iteration # 23     ecut=    70.00 Ry     beta= 0.40
     Davidson diagonalization with overlap
     ethr =  1.42E-05,  avg # of iterations =  1.0

     total cpu time spent up to now is     3022.6 secs

     total energy              =  -38989.81756308 Ry
     Harris-Foulkes estimate   =  -38989.82279913 Ry
     estimated scf accuracy    <       0.06453251 Ry

     iteration # 24     ecut=    70.00 Ry     beta= 0.40
     Davidson diagonalization with overlap
     ethr =  4.23E-06,  avg # of iterations =  2.0

     total cpu time spent up to now is     3141.8 secs

     total energy              =  -38989.81910296 Ry
     Harris-Foulkes estimate   =  -38989.82171129 Ry
     estimated scf accuracy    <       0.02596579 Ry

     iteration # 25     ecut=    70.00 Ry     beta= 0.40
     Davidson diagonalization with overlap
     ethr =  1.70E-06,  avg # of iterations =  2.2

     total cpu time spent up to now is     3262.1 secs

     total energy              =  -38989.81949788 Ry
     Harris-Foulkes estimate   =  -38989.82135797 Ry
     estimated scf accuracy    <       0.02481348 Ry

     iteration # 26     ecut=    70.00 Ry     beta= 0.40
     Davidson diagonalization with overlap
     ethr =  1.63E-06,  avg # of iterations =  1.0

     total cpu time spent up to now is     3361.4 secs

     total energy              =  -38989.82003641 Ry
     Harris-Foulkes estimate   =  -38989.82097355 Ry
     estimated scf accuracy    <       0.01037584 Ry

     iteration # 27     ecut=    70.00 Ry     beta= 0.40
     Davidson diagonalization with overlap
     ethr =  6.80E-07,  avg # of iterations =  1.0

     total cpu time spent up to now is     3460.5 secs

     total energy              =  -38989.81979540 Ry
     Harris-Foulkes estimate   =  -38989.82119598 Ry
     estimated scf accuracy    <       0.01906729 Ry

     iteration # 28     ecut=    70.00 Ry     beta= 0.40
     Davidson diagonalization with overlap
     ethr =  6.80E-07,  avg # of iterations =  1.0

     total cpu time spent up to now is     3559.5 secs

     total energy              =  -38989.82031053 Ry
     Harris-Foulkes estimate   =  -38989.82081393 Ry
     estimated scf accuracy    <       0.00707236 Ry

     iteration # 29     ecut=    70.00 Ry     beta= 0.40
     Davidson diagonalization with overlap
     ethr =  4.64E-07,  avg # of iterations =  1.0

     total cpu time spent up to now is     3658.6 secs

     total energy              =  -38989.82040168 Ry
     Harris-Foulkes estimate   =  -38989.82072907 Ry
     estimated scf accuracy    <       0.00423820 Ry

     iteration # 30     ecut=    70.00 Ry     beta= 0.40
     Davidson diagonalization with overlap
     ethr =  2.78E-07,  avg # of iterations =  1.0

     total cpu time spent up to now is     3757.5 secs

     total energy              =  -38989.82047778 Ry
     Harris-Foulkes estimate   =  -38989.82067988 Ry
     estimated scf accuracy    <       0.00253396 Ry

     iteration # 31     ecut=    70.00 Ry     beta= 0.40
     Davidson diagonalization with overlap
     ethr =  1.66E-07,  avg # of iterations =  1.0

     total cpu time spent up to now is     3856.4 secs

     total energy              =  -38989.82040800 Ry
     Harris-Foulkes estimate   =  -38989.82077553 Ry
     estimated scf accuracy    <       0.00654412 Ry

     iteration # 32     ecut=    70.00 Ry     beta= 0.40
     Davidson diagonalization with overlap
     ethr =  1.66E-07,  avg # of iterations =  1.0

     total cpu time spent up to now is     3955.8 secs

     total energy              =  -38989.82052600 Ry
     Harris-Foulkes estimate   =  -38989.82066648 Ry
     estimated scf accuracy    <       0.00146237 Ry

     iteration # 33     ecut=    70.00 Ry     beta= 0.40
     Davidson diagonalization with overlap
     ethr =  9.59E-08,  avg # of iterations =  1.0

     total cpu time spent up to now is     4054.7 secs

     total energy              =  -38989.82053129 Ry
     Harris-Foulkes estimate   =  -38989.82066636 Ry
     estimated scf accuracy    <       0.00143077 Ry

     iteration # 34     ecut=    70.00 Ry     beta= 0.40
     Davidson diagonalization with overlap
     ethr =  9.38E-08,  avg # of iterations =  1.0

     total cpu time spent up to now is     4153.7 secs

     total energy              =  -38989.82055463 Ry
     Harris-Foulkes estimate   =  -38989.82065381 Ry
     estimated scf accuracy    <       0.00150577 Ry

     iteration # 35     ecut=    70.00 Ry     beta= 0.40
     Davidson diagonalization with overlap
     ethr =  9.38E-08,  avg # of iterations =  1.0

     total cpu time spent up to now is     4252.7 secs

     total energy              =  -38989.82056897 Ry
     Harris-Foulkes estimate   =  -38989.82063839 Ry
     estimated scf accuracy    <       0.00079490 Ry

     iteration # 36     ecut=    70.00 Ry     beta= 0.40
     Davidson diagonalization with overlap
     ethr =  5.21E-08,  avg # of iterations =  1.0

     total cpu time spent up to now is     4351.8 secs

     total energy              =  -38989.82058114 Ry
     Harris-Foulkes estimate   =  -38989.82063898 Ry
     estimated scf accuracy    <       0.00091487 Ry

     iteration # 37     ecut=    70.00 Ry     beta= 0.40
     Davidson diagonalization with overlap
     ethr =  5.21E-08,  avg # of iterations =  1.0

     total cpu time spent up to now is     4451.3 secs

     total energy              =  -38989.82059231 Ry
     Harris-Foulkes estimate   =  -38989.82062532 Ry
     estimated scf accuracy    <       0.00035488 Ry

     iteration # 38     ecut=    70.00 Ry     beta= 0.40
     Davidson diagonalization with overlap
     ethr =  2.33E-08,  avg # of iterations =  1.0

     total cpu time spent up to now is     4550.8 secs

     total energy              =  -38989.82059175 Ry
     Harris-Foulkes estimate   =  -38989.82063074 Ry
     estimated scf accuracy    <       0.00067402 Ry

     iteration # 39     ecut=    70.00 Ry     beta= 0.40
     Davidson diagonalization with overlap
     ethr =  2.33E-08,  avg # of iterations =  1.0

     total cpu time spent up to now is     4649.7 secs

     total energy              =  -38989.82060529 Ry
     Harris-Foulkes estimate   =  -38989.82061880 Ry
     estimated scf accuracy    <       0.00019413 Ry

     iteration # 40     ecut=    70.00 Ry     beta= 0.40
     Davidson diagonalization with overlap
     ethr =  1.27E-08,  avg # of iterations =  1.0

     total cpu time spent up to now is     4748.6 secs

     total energy              =  -38989.82061014 Ry
     Harris-Foulkes estimate   =  -38989.82061637 Ry
     estimated scf accuracy    <       0.00007602 Ry

     iteration # 41     ecut=    70.00 Ry     beta= 0.40
     Davidson diagonalization with overlap
     ethr =  4.99E-09,  avg # of iterations =  1.0

     total cpu time spent up to now is     4847.5 secs

     total energy              =  -38989.82060971 Ry
     Harris-Foulkes estimate   =  -38989.82061778 Ry
     estimated scf accuracy    <       0.00013293 Ry

     iteration # 42     ecut=    70.00 Ry     beta= 0.40
     Davidson diagonalization with overlap
     ethr =  4.99E-09,  avg # of iterations =  1.0

     total cpu time spent up to now is     4946.5 secs

     total energy              =  -38989.82061227 Ry
     Harris-Foulkes estimate   =  -38989.82061570 Ry
     estimated scf accuracy    <       0.00003795 Ry

     iteration # 43     ecut=    70.00 Ry     beta= 0.40
     Davidson diagonalization with overlap
     ethr =  2.49E-09,  avg # of iterations =  1.0

     total cpu time spent up to now is     5045.6 secs

     total energy              =  -38989.82061148 Ry
     Harris-Foulkes estimate   =  -38989.82061659 Ry
     estimated scf accuracy    <       0.00004938 Ry

     iteration # 44     ecut=    70.00 Ry     beta= 0.40
     Davidson diagonalization with overlap
     ethr =  2.49E-09,  avg # of iterations =  1.0

     total cpu time spent up to now is     5145.1 secs

     total energy              =  -38989.82061049 Ry
     Harris-Foulkes estimate   =  -38989.82061804 Ry
     estimated scf accuracy    <       0.00013610 Ry

     iteration # 45     ecut=    70.00 Ry     beta= 0.40
     Davidson diagonalization with overlap
     ethr =  2.49E-09,  avg # of iterations =  1.0

     total cpu time spent up to now is     5244.3 secs

     total energy              =  -38989.82061321 Ry
     Harris-Foulkes estimate   =  -38989.82061564 Ry
     estimated scf accuracy    <       0.00002427 Ry

     iteration # 46     ecut=    70.00 Ry     beta= 0.40
     Davidson diagonalization with overlap
     ethr =  1.59E-09,  avg # of iterations =  1.0

     total cpu time spent up to now is     5343.5 secs

     total energy              =  -38989.82061291 Ry
     Harris-Foulkes estimate   =  -38989.82061647 Ry
     estimated scf accuracy    <       0.00006442 Ry

     iteration # 47     ecut=    70.00 Ry     beta= 0.40
     Davidson diagonalization with overlap
     ethr =  1.59E-09,  avg # of iterations =  1.0

     total cpu time spent up to now is     5442.7 secs

     total energy              =  -38989.82061417 Ry
     Harris-Foulkes estimate   =  -38989.82061520 Ry
     estimated scf accuracy    <       0.00000951 Ry

     iteration # 48     ecut=    70.00 Ry     beta= 0.40
     Davidson diagonalization with overlap
     ethr =  6.24E-10,  avg # of iterations =  1.0

     total cpu time spent up to now is     5541.9 secs

     total energy              =  -38989.82061357 Ry
     Harris-Foulkes estimate   =  -38989.82061590 Ry
     estimated scf accuracy    <       0.00004037 Ry

     iteration # 49     ecut=    70.00 Ry     beta= 0.40
     Davidson diagonalization with overlap
     ethr =  6.24E-10,  avg # of iterations =  1.0

     total cpu time spent up to now is     5641.4 secs

     total energy              =  -38989.82061426 Ry
     Harris-Foulkes estimate   =  -38989.82061531 Ry
     estimated scf accuracy    <       0.00001631 Ry

     iteration # 50     ecut=    70.00 Ry     beta= 0.40
     Davidson diagonalization with overlap
     ethr =  6.24E-10,  avg # of iterations =  1.0

     total cpu time spent up to now is     5741.1 secs

     total energy              =  -38989.82061467 Ry
     Harris-Foulkes estimate   =  -38989.82061508 Ry
     estimated scf accuracy    <       0.00000525 Ry

     iteration # 51     ecut=    70.00 Ry     beta= 0.40
     Davidson diagonalization with overlap
     ethr =  3.45E-10,  avg # of iterations =  1.0

     total cpu time spent up to now is     5840.1 secs

     total energy              =  -38989.82061474 Ry
     Harris-Foulkes estimate   =  -38989.82061508 Ry
     estimated scf accuracy    <       0.00000510 Ry

     iteration # 52     ecut=    70.00 Ry     beta= 0.40
     Davidson diagonalization with overlap
     ethr =  3.34E-10,  avg # of iterations =  1.0

     total cpu time spent up to now is     5939.2 secs

     total energy              =  -38989.82061487 Ry
     Harris-Foulkes estimate   =  -38989.82061501 Ry
     estimated scf accuracy    <       0.00000208 Ry

     iteration # 53     ecut=    70.00 Ry     beta= 0.40
     Davidson diagonalization with overlap
     ethr =  1.36E-10,  avg # of iterations =  1.0

     total cpu time spent up to now is     6038.2 secs

     total energy              =  -38989.82061488 Ry
     Harris-Foulkes estimate   =  -38989.82061503 Ry
     estimated scf accuracy    <       0.00000154 Ry

     iteration # 54     ecut=    70.00 Ry     beta= 0.40
     Davidson diagonalization with overlap
     ethr =  1.01E-10,  avg # of iterations =  1.0

     total cpu time spent up to now is     6137.1 secs

     total energy              =  -38989.82061481 Ry
     Harris-Foulkes estimate   =  -38989.82061513 Ry
     estimated scf accuracy    <       0.00000547 Ry

     iteration # 55     ecut=    70.00 Ry     beta= 0.40
     Davidson diagonalization with overlap
     ethr =  1.01E-10,  avg # of iterations =  1.0

     total cpu time spent up to now is     6236.2 secs

     total energy              =  -38989.82061492 Ry
     Harris-Foulkes estimate   =  -38989.82061505 Ry
     estimated scf accuracy    <       0.00000154 Ry

     iteration # 56     ecut=    70.00 Ry     beta= 0.40
     Davidson diagonalization with overlap
     ethr =  1.01E-10,  avg # of iterations =  1.0

     total cpu time spent up to now is     6335.6 secs

     total energy              =  -38989.82061491 Ry
     Harris-Foulkes estimate   =  -38989.82061507 Ry
     estimated scf accuracy    <       0.00000284 Ry

     iteration # 57     ecut=    70.00 Ry     beta= 0.40
     Davidson diagonalization with overlap
     ethr =  1.01E-10,  avg # of iterations =  1.0

     total cpu time spent up to now is     6434.5 secs

     End of self-consistent calculation

          k = 0.2500 0.2451 0.2500 (118458 PWs)   bands (ev):

   -98.9158 -98.8890 -98.8253 -98.7880 -98.7751 -98.7553 -98.7537 -98.7379
   -98.7141 -98.7065 -98.7012 -98.6956 -98.6891 -98.6850 -98.6823 -98.6750
   -98.6651 -98.6608 -98.6534 -98.6483 -98.6425 -98.6364 -98.6276 -98.6178
   -98.5960 -98.5951 -98.5949 -98.5798 -98.5645 -98.5576 -98.5523 -98.5299
   -98.5287 -98.5146 -98.5081 -98.4699 -98.4646 -98.4627 -98.4445 -98.4345
   -98.4285 -98.4254 -98.4219 -98.4168 -98.4121 -98.3956 -98.3925 -98.3561
   -98.3230 -56.3019 -56.3000 -56.2574 -56.2422 -56.2305 -56.2210 -56.1917
   -56.1885 -56.1636 -56.1504 -56.1442 -56.1288 -56.1266 -56.1150 -56.1148
   -56.1103 -56.1046 -56.1026 -56.1004 -56.0924 -56.0852 -56.0845 -56.0844
   -56.0844 -56.0802 -56.0715 -56.0693 -56.0651 -56.0594 -56.0593 -56.0562
   -56.0517 -56.0478 -56.0470 -56.0456 -56.0426 -56.0422 -56.0419 -56.0405
   -56.0341 -56.0338 -56.0336 -56.0267 -56.0226 -56.0211 -56.0087 -56.0056
   -56.0000 -55.9974 -55.9963 -55.9942 -55.9933 -55.9931 -55.9930 -55.9863
   -55.9856 -55.9811 -55.9807 -55.9790 -55.9756 -55.9717 -55.9710 -55.9676
   -55.9642 -55.9597 -55.9554 -55.9546 -55.9544 -55.9491 -55.9472 -55.9464
   -55.9464 -55.9438 -55.9437 -55.9402 -55.9339 -55.9314 -55.9258 -55.9257
   -55.9208 -55.9185 -55.9180 -55.9149 -55.9131 -55.9072 -55.9029 -55.9023
   -55.8993 -55.8941 -55.8890 -55.8866 -55.8839 -55.8704 -55.8634 -55.8623
   -55.8607 -55.8533 -55.8490 -55.8488 -55.8440 -55.8395 -55.8378 -55.8362
   -55.8329 -55.8324 -55.8283 -55.8269 -55.8225 -55.8202 -55.8197 -55.8118
   -55.8084 -55.8058 -55.8053 -55.7971 -55.7960 -55.7943 -55.7936 -55.7881
   -55.7876 -55.7806 -55.7794 -55.7725 -55.7642 -55.7639 -55.7604 -55.7559
   -55.7557 -55.7427 -55.7414 -55.7379 -55.7372 -55.7370 -55.7297 -55.7279
   -55.7209 -55.7175 -55.7112 -55.7108 -55.7092 -55.6991 -55.6874 -55.6811
   -55.6786 -55.6691 -55.6681 -55.6382 -34.7680 -34.6133 -34.5695 -34.5635
   -34.5463 -34.4873 -34.4855 -34.4772 -34.4710 -34.4647 -34.4597 -34.4522
   -34.4475 -34.4436 -34.4407 -34.4158 -34.4001 -34.3895 -34.3813 -34.3772
   -34.3722 -34.3605 -34.3553 -34.3521 -34.3503 -34.3473 -34.3444 -34.3254
   -34.3236 -34.3123 -34.3118 -34.3060 -34.3038 -34.2924 -34.2724 -34.2662
   -34.2440 -34.2386 -34.2237 -34.2146 -34.2113 -34.1821 -34.1763 -34.1535
   -34.1136 -34.0860 -34.0649 -33.9747 -33.8715 -12.8366 -12.8203 -12.8105
   -12.8050 -12.7942 -12.7871 -12.7780 -12.7748 -12.7700 -12.7586 -12.7521
   -12.7404 -12.7357 -12.7306 -12.7235 -12.7201 -12.7107 -12.7088 -12.7024
   -12.6970 -12.6927 -12.6876 -12.6784 -12.6737 -12.6716 -12.6677 -12.6613
   -12.6517 -12.6463 -12.6434 -12.6382 -12.6364 -12.6308 -12.6253 -12.6221
   -12.6163 -12.6138 -12.6077 -12.5986 -12.5932 -12.5907 -12.5883 -12.5793
   -12.5755 -12.5710 -12.5641 -12.5567 -12.5536 -12.5452 -12.5407 -12.5375
   -12.5315 -12.5286 -12.5200 -12.5145 -12.5098 -12.5022 -12.4985 -12.4961
   -12.4895 -12.4841 -12.4821 -12.4726 -12.4664 -12.4620 -12.4551 -12.4527
   -12.4465 -12.4432 -12.4371 -12.4346 -12.4285 -12.4224 -12.4149 -12.4104
   -12.4020 -12.3957 -12.3927 -12.3861 -12.3792 -12.3754 -12.3713 -12.3669
   -12.3646 -12.3584 -12.3522 -12.3450 -12.3405 -12.3386 -12.3292 -12.3266
   -12.3183 -12.3137 -12.3066 -12.3000 -12.2927 -12.2880 -12.2817 -12.2796
   -12.2746 -12.2714 -12.2665 -12.2633 -12.2574 -12.2543 -12.2524 -12.2436
   -12.2415 -12.2362 -12.2252 -12.2219 -12.2140 -12.2083 -12.2044 -12.1976
   -12.1910 -12.1866 -12.1809 -12.1701 -12.1629 -12.1571 -12.1530 -12.1469
   -12.1399 -12.1296 -12.1243 -12.1210 -12.1096 -12.0908 -12.0750 -12.0629
   -12.0502 -12.0440 -12.0314 -12.0237 -12.0153 -12.0082 -11.9815 -11.9334
   -11.9245 -11.9150 -11.8915 -11.8505 -11.8477 -11.8167 -11.7978 -11.7344
     7.0732   7.4066   7.5898   7.8837   8.0804   8.1987   8.4112   8.5688
     8.6329   8.7159   8.9038   9.0162   9.0534   9.1270   9.2003   9.3540
     9.4241   9.4940   9.5080   9.6571   9.6860   9.7404   9.7811   9.8103
     9.8508   9.8961   9.9222   9.9646  10.0070  10.0449  10.0684  10.0803
    10.1045  10.1289  10.1417  10.1522  10.1624  10.1915  10.1976  10.2187
    10.2251  10.2378  10.2610  10.2642  10.2736  10.2975  10.3079  10.3131
    10.3244  10.3415  10.3586  10.3625  10.3772  10.3913  10.3934  10.4100
    10.4253  10.4346  10.4384  10.4452  10.4518  10.4638  10.4685  10.4792
    10.4929  10.5006  10.5064  10.5209  10.5255  10.5380  10.5428  10.5493
    10.5550  10.5661  10.5718  10.5815  10.5900  10.5941  10.6076  10.6100
    10.6152  10.6262  10.6295  10.6427  10.6483  10.6509  10.6597  10.6646
    10.6727  10.6814  10.6880  10.6943  10.7051  10.7124  10.7201  10.7256
    10.7322  10.7415  10.7494  10.7538  10.7557  10.7647  10.7727  10.7757
    10.7813  10.7858  10.7936  10.8060  10.8123  10.8186  10.8237  10.8258
    10.8350  10.8427  10.8443  10.8556  10.8649  10.8719  10.8776  10.8796
    10.8903  10.8943  10.9050  10.9072  10.9131  10.9174  10.9329  10.9362
    10.9408  10.9483  10.9570  10.9606  10.9673  10.9712  10.9775  10.9826
    10.9870  10.9979  11.0022  11.0133  11.0179  11.0259  11.0281  11.0338
    11.0388  11.0433  11.0515  11.0544  11.0592  11.0684  11.0743  11.0817
    11.0886  11.0948  11.1036  11.1099  11.1129  11.1171  11.1258  11.1323
    11.1422  11.1465  11.1516  11.1532  11.1607  11.1646  11.1717  11.1786
    11.1844  11.1925  11.1990  11.2050  11.2135  11.2209  11.2262  11.2330
    11.2369  11.2452  11.2521  11.2589  11.2655  11.2712  11.2775  11.2868
    11.2929  11.2941  11.3048  11.3130  11.3229  11.3278  11.3398  11.3487
    11.3515  11.3553  11.3682  11.3728  11.3757  11.3811  11.3926  11.4004
    11.4090  11.4176  11.4228  11.4341  11.4418  11.4457  11.4504  11.4566
    11.4655  11.4830  11.4930  11.4972  11.5058  11.5141  11.5207  11.5253
    11.5295  11.5405  11.5436  11.5560  11.5625  11.5735  11.5854  11.5932
    11.5962  11.6034  11.6053  11.6210  11.6314  11.6362  11.6484  11.6536
    11.6597  11.6669  11.6785  11.6867  11.6907  11.7006  11.7098  11.7147
    11.7282  11.7410  11.7488  11.7562  11.7621  11.7695  11.7738  11.7961
    11.8051  11.8169  11.8288  11.8343  11.8418  11.8553  11.8717  11.8795
    11.8862  11.8937  11.8949  11.9139  11.9184  11.9289  11.9424  11.9500
    11.9646  11.9809  11.9917  12.0097  12.0134  12.0321  12.0423  12.0546
    12.0719  12.0884  12.1000  12.1204  12.1386  12.1587  12.1757  12.1890
    12.2103  12.2339  12.2605  12.2837  12.3089  12.3386  12.3817  12.3944
    12.4413  12.4794  12.4994  12.5146  12.5659  12.5916  12.6242  12.6718
    12.6794  12.7075  12.7519  12.7590  12.8195  12.8603  12.8967  12.9081
    12.9534  12.9890  13.0142  13.0560  13.0859  13.1053  13.1312  13.1496
    13.1733  13.2170  13.2297  13.2652  13.2881  13.3456  13.3622  13.3792
    13.3909  13.4229  13.4439  13.4618  13.5014  13.5305  13.5561  13.5686
    13.5928  13.6262  13.6610  13.6682  13.6814  13.7104  13.7166  13.7435
    13.7681  13.7841  13.8058  13.8167  13.8442  13.8629  13.8768  13.8928
    13.9071  13.9302  13.9530  13.9717  13.9822  14.0306  14.0408  14.0477
    14.0688  14.1088  14.1234  14.1379  14.1598  14.1725  14.1990  14.2085
    14.2294  14.2453  14.2765  14.2848  14.3161  14.3361  14.3454  14.3704
    14.3895  14.4068  14.4266  14.4509  14.4752  14.4888  14.4987  14.5121
    14.5417  14.5585  14.5768  14.5872  14.5937  14.6203  14.6346  14.6513
    14.6829  14.7026  14.7158  14.7358  14.7554  14.7681  14.7817  14.7993
    14.8170  14.8471  14.8647  14.8843  14.9197  14.9436  14.9641  14.9942
    15.0032  15.0275  15.0426  15.0473  15.0803  15.1049  15.1281  15.1386
    15.1692  15.1878  15.2293  15.2402  15.2886  15.3199  15.3342  15.3647
    15.3797  15.3926  15.4118  15.4362  15.4673  15.5116  15.5242  15.5614
    15.5755  15.6203  15.6705  15.6911  15.7113  15.7473  15.7671  15.8019
    15.8287  15.8422  15.8854  15.9288  15.9542  15.9852  16.0256  16.0470
    16.0679  16.1014  16.1283  16.1493  16.1964  16.2440  16.2795  16.3263
    16.3479  16.3745  16.4138  16.4344  16.4515  16.4830  16.5143  16.5532
    16.5803  16.5997  16.6352  16.6749  16.6961  16.7347  16.7549  16.7730
    16.8140  16.8371  16.8672  16.9189  16.9299  16.9582  16.9730  16.9999
    17.0488  17.0677  17.0866  17.1070  17.1472  17.1706  17.1986  17.2269
    17.2540  17.2802  17.3063  17.3410  17.3649  17.3806  17.4097  17.4459
    17.4578  17.4865  17.5280  17.5325  17.5552  17.5857  17.6074  17.6157
    17.6576  17.6904  17.7197  17.7524  17.7683  17.7893  17.8170  17.8444
    17.8533  17.8791  17.9126  17.9185  17.9588  17.9654  17.9929  18.0192
    18.0375  18.0611  18.0766  18.1063  18.1368  18.1717  18.2129  18.2353
    18.2534  18.2705  18.2844  18.3100  18.3391  18.3761  18.3994  18.4269
    18.4469  18.4721  18.5362  18.5587  18.5847  18.5992  18.6415  18.6644
    18.7110  18.7272  18.7534  18.7974  18.8107  18.8667  18.8838  18.9209
    18.9644  18.9898  19.0196  19.0753  19.1240  19.1794  19.2200  19.2357
    19.2595  19.3037  19.3397  19.3957  19.4300  19.4403  19.5203  19.6253
    19.6614  19.6837  19.7070  19.7719  19.8333  19.9237  19.9519  20.0269
    20.0670  20.1173  20.1471  20.2359  20.2803  20.2978  20.3517  20.4095
    20.4494  20.4985  20.5843  20.5901  20.6771  20.7049  20.7701  20.8054
    20.8521  20.8689  20.9387  21.0011  21.0289  21.0881  21.1210  21.1650
    21.1961  21.2355  21.2947  21.3425  21.3678  21.3976  21.4703  21.5261
    21.5441  21.5750  21.6188  21.6553  21.6973  21.7466  21.8195  21.8330
    21.8782  21.9276  21.9637  22.0059  22.0117  22.0809  22.1265  22.1421
    22.1729  22.2329  22.2772  22.3165  22.3546  22.4039  22.4550  22.4622
    22.5015  22.5388  22.6272  22.6414  22.6755  22.6989  22.7465  22.7893
    22.8277  22.8550  22.8857  22.9199  22.9924  23.0342  23.0637  23.1007
    23.1296  23.1710  23.1933  23.2308  23.2542  23.2690  23.3100  23.3612
    23.4047  23.4316  23.5054  23.5518  23.5960  23.6286  23.6440  23.6879
    23.7185  23.7550  23.7811  23.8288  23.8752  23.9033  23.9213  23.9582
    23.9829  24.0386  24.0841  24.1099  24.1326  24.1727  24.2417  24.2555
    24.3046  24.3265  24.3321  24.3768  24.4302  24.4530  24.5010  24.5316
    24.5583  24.6556  24.6848  24.7127  24.7423  24.7687  24.8106  24.8475
    24.8630  24.9223  24.9597  24.9832  25.0320  25.0799

     occupation numbers 
     1.0000   1.0000   1.0000   1.0000   1.0000   1.0000   1.0000   1.0000
     1.0000   1.0000   1.0000   1.0000   1.0000   1.0000   1.0000   1.0000
     1.0000   1.0000   1.0000   1.0000   1.0000   1.0000   1.0000   1.0000
     1.0000   1.0000   1.0000   1.0000   1.0000   1.0000   1.0000   1.0000
     1.0000   1.0000   1.0000   1.0000   1.0000   1.0000   1.0000   1.0000
     1.0000   1.0000   1.0000   1.0000   1.0000   1.0000   1.0000   1.0000
     1.0000   1.0000   1.0000   1.0000   1.0000   1.0000   1.0000   1.0000
     1.0000   1.0000   1.0000   1.0000   1.0000   1.0000   1.0000   1.0000
     1.0000   1.0000   1.0000   1.0000   1.0000   1.0000   1.0000   1.0000
     1.0000   1.0000   1.0000   1.0000   1.0000   1.0000   1.0000   1.0000
     1.0000   1.0000   1.0000   1.0000   1.0000   1.0000   1.0000   1.0000
     1.0000   1.0000   1.0000   1.0000   1.0000   1.0000   1.0000   1.0000
     1.0000   1.0000   1.0000   1.0000   1.0000   1.0000   1.0000   1.0000
     1.0000   1.0000   1.0000   1.0000   1.0000   1.0000   1.0000   1.0000
     1.0000   1.0000   1.0000   1.0000   1.0000   1.0000   1.0000   1.0000
     1.0000   1.0000   1.0000   1.0000   1.0000   1.0000   1.0000   1.0000
     1.0000   1.0000   1.0000   1.0000   1.0000   1.0000   1.0000   1.0000
     1.0000   1.0000   1.0000   1.0000   1.0000   1.0000   1.0000   1.0000
     1.0000   1.0000   1.0000   1.0000   1.0000   1.0000   1.0000   1.0000
     1.0000   1.0000   1.0000   1.0000   1.0000   1.0000   1.0000   1.0000
     1.0000   1.0000   1.0000   1.0000   1.0000   1.0000   1.0000   1.0000
     1.0000   1.0000   1.0000   1.0000   1.0000   1.0000   1.0000   1.0000
     1.0000   1.0000   1.0000   1.0000   1.0000   1.0000   1.0000   1.0000
     1.0000   1.0000   1.0000   1.0000   1.0000   1.0000   1.0000   1.0000
     1.0000   1.0000   1.0000   1.0000   1.0000   1.0000   1.0000   1.0000
     1.0000   1.0000   1.0000   1.0000   1.0000   1.0000   1.0000   1.0000
     1.0000   1.0000   1.0000   1.0000   1.0000   1.0000   1.0000   1.0000
     1.0000   1.0000   1.0000   1.0000   1.0000   1.0000   1.0000   1.0000
     1.0000   1.0000   1.0000   1.0000   1.0000   1.0000   1.0000   1.0000
     1.0000   1.0000   1.0000   1.0000   1.0000   1.0000   1.0000   1.0000
     1.0000   1.0000   1.0000   1.0000   1.0000   1.0000   1.0000   1.0000
     1.0000   1.0000   1.0000   1.0000   1.0000   1.0000   1.0000   1.0000
     1.0000   1.0000   1.0000   1.0000   1.0000   1.0000   1.0000   1.0000
     1.0000   1.0000   1.0000   1.0000   1.0000   1.0000   1.0000   1.0000
     1.0000   1.0000   1.0000   1.0000   1.0000   1.0000   1.0000   1.0000
     1.0000   1.0000   1.0000   1.0000   1.0000   1.0000   1.0000   1.0000
     1.0000   1.0000   1.0000   1.0000   1.0000   1.0000   1.0000   1.0000
     1.0000   1.0000   1.0000   1.0000   1.0000   1.0000   1.0000   1.0000
     1.0000   1.0000   1.0000   1.0000   1.0000   1.0000   1.0000   1.0000
     1.0000   1.0000   1.0000   1.0000   1.0000   1.0000   1.0000   1.0000
     1.0000   1.0000   1.0000   1.0000   1.0000   1.0000   1.0000   1.0000
     1.0000   1.0000   1.0000   1.0000   1.0000   1.0000   1.0000   1.0000
     1.0000   1.0000   1.0000   1.0000   1.0000   1.0000   1.0000   1.0000
     1.0000   1.0000   1.0000   1.0000   1.0000   1.0000   1.0000   1.0000
     1.0000   1.0000   1.0000   1.0000   1.0000   1.0000   1.0000   1.0000
     1.0000   1.0000   1.0000   1.0000   1.0000   1.0000   1.0000   1.0000
     1.0000   1.0000   1.0000   1.0000   1.0000   1.0000   1.0000   1.0000
     1.0000   1.0000   1.0000   1.0000   1.0000   1.0000   1.0000   1.0000
     1.0000   1.0000   1.0000   1.0000   1.0000   1.0000   1.0000   1.0000
     1.0000   1.0000   1.0000   1.0000   1.0000   1.0000   1.0000   1.0000
     1.0000   1.0000   1.0000   1.0000   1.0000   1.0000   1.0000   1.0000
     1.0000   1.0000   1.0000   1.0000   1.0000   1.0000   1.0000   1.0000
     1.0000   1.0000   1.0000   1.0000   1.0000   1.0000   1.0000   1.0000
     1.0000   1.0000   1.0000   1.0000   1.0000   1.0000   1.0000   1.0000
     1.0000   1.0000   1.0000   1.0000   1.0000   1.0000   1.0000   1.0000
     1.0000   1.0000   1.0000   1.0000   1.0000   1.0000   1.0000   1.0000
     1.0000   1.0000   1.0000   1.0000   1.0000   1.0000   1.0000   1.0000
     1.0000   1.0000   1.0000   1.0000   1.0000   1.0000   1.0000   1.0000
     1.0000   1.0000   1.0000   1.0000   1.0000   1.0000   1.0000   1.0000
     1.0000   1.0000   1.0000   1.0000   1.0000   1.0000   1.0000   1.0000
     1.0000   1.0000   1.0000   1.0000   1.0000   1.0000   1.0000   1.0000
     1.0000   1.0000   1.0000   1.0000   1.0000   1.0000   1.0000   1.0000
     1.0000   1.0000   1.0000   1.0000   1.0000   1.0000   1.0000   1.0000
     1.0000   1.0000   1.0000   1.0000   1.0000   1.0000   1.0000   1.0000
     1.0000   1.0000   1.0000   1.0000   1.0000   1.0000   1.0000   1.0000
     1.0000   1.0000   1.0000   1.0000   1.0000   1.0000   1.0000   1.0000
     1.0000   1.0000   1.0000   1.0000   1.0000   1.0000   1.0000   1.0000
     1.0000   1.0000   1.0000   1.0000   1.0000   1.0000   1.0000   1.0000
     1.0000   1.0000   1.0000   1.0000   1.0000   1.0000   1.0000   1.0000
     1.0000   1.0000   1.0000   1.0000   1.0000   1.0000   1.0000   1.0000
     1.0000   1.0000   1.0000   1.0000   1.0000   1.0000   1.0000   1.0000
     1.0000   1.0000   1.0000   1.0000   1.0000   1.0000   1.0000   1.0000
     1.0000   1.0000   1.0000   1.0000   1.0000   1.0000   1.0000   1.0000
     1.0000   1.0000   1.0000   1.0000   1.0000   1.0000   1.0000   1.0000
     1.0000   1.0000   1.0000   1.0000   1.0000   1.0000   1.0000   1.0000
     1.0000   1.0000   1.0000   1.0000   1.0000   1.0000   1.0000   1.0000
     1.0000   1.0000   1.0000   1.0000   1.0000   1.0000   1.0000   1.0000
     1.0000   1.0000   1.0000   1.0000   1.0000   1.0000   1.0000   1.0000
     1.0000   1.0000   1.0000   1.0000   1.0000   1.0000   1.0000   1.0000
     1.0000   1.0000   1.0000   1.0000   1.0000   1.0000   1.0000   1.0000
     1.0000   1.0000   1.0000   1.0000   1.0000   1.0000   1.0000   1.0000
     1.0000   1.0000   1.0000   1.0000   1.0000   1.0000   1.0000   1.0000
     1.0000   1.0000   1.0000   1.0000   1.0000   1.0000   1.0000   1.0000
     1.0000   1.0000   1.0000   1.0000   1.0000   1.0000   1.0000   1.0000
     1.0000   1.0000   1.0000   1.0000   1.0000   1.0000   1.0000   1.0000
     1.0000   1.0000   1.0000   1.0000   1.0000   1.0000   1.0000   1.0000
     1.0000   1.0000   1.0000   1.0000   1.0000   1.0000   1.0000   1.0000
     1.0000   1.0000   1.0000   1.0000   1.0000   1.0000   1.0000   1.0000
     1.0000   1.0000   1.0000   1.0000   1.0000   0.9999   0.9999   0.9999
     0.9999   0.9999   0.9999   0.9998   0.9998   0.9997   0.9996   0.9996
     0.9995   0.9993   0.9991   0.9990   0.9989   0.9985   0.9984   0.9980
     0.9975   0.9971   0.9965   0.9961   0.9950   0.9940   0.9932   0.9922
     0.9911   0.9890   0.9865   0.9840   0.9824   0.9728   0.9702   0.9683
     0.9618   0.9458   0.9384   0.9303   0.9161   0.9067   0.8839   0.8747
     0.8521   0.8327   0.7889   0.7758   0.7219   0.6837   0.6649   0.6119
     0.5696   0.5302   0.4847   0.4295   0.3758   0.3469   0.3266   0.3002
     0.2462   0.2188   0.1914   0.1770   0.1685   0.1370   0.1222   0.1067
     0.0820   0.0694   0.0619   0.0521   0.0439   0.0392   0.0348   0.0297
     0.0254   0.0194   0.0165   0.0138   0.0100   0.0081   0.0067   0.0051
     0.0047   0.0038   0.0033   0.0031   0.0023   0.0018   0.0015   0.0014
     0.0010   0.0009   0.0006   0.0005   0.0003   0.0003   0.0002   0.0002
     0.0001   0.0001   0.0001   0.0001   0.0001   0.0000   0.0000   0.0000
     0.0000   0.0000   0.0000   0.0000   0.0000   0.0000   0.0000   0.0000
     0.0000   0.0000   0.0000   0.0000   0.0000   0.0000   0.0000   0.0000
     0.0000   0.0000   0.0000   0.0000   0.0000   0.0000   0.0000   0.0000
     0.0000   0.0000   0.0000   0.0000   0.0000   0.0000   0.0000   0.0000
     0.0000   0.0000   0.0000   0.0000   0.0000   0.0000   0.0000   0.0000
     0.0000   0.0000   0.0000   0.0000   0.0000   0.0000   0.0000   0.0000
     0.0000   0.0000   0.0000   0.0000   0.0000   0.0000   0.0000   0.0000
     0.0000   0.0000   0.0000   0.0000   0.0000   0.0000   0.0000   0.0000
     0.0000   0.0000   0.0000   0.0000   0.0000   0.0000   0.0000   0.0000
     0.0000   0.0000   0.0000   0.0000   0.0000   0.0000   0.0000   0.0000
     0.0000   0.0000   0.0000   0.0000   0.0000   0.0000   0.0000   0.0000
     0.0000   0.0000   0.0000   0.0000   0.0000   0.0000   0.0000   0.0000
     0.0000   0.0000   0.0000   0.0000   0.0000   0.0000   0.0000   0.0000
     0.0000   0.0000   0.0000   0.0000   0.0000   0.0000   0.0000   0.0000
     0.0000   0.0000   0.0000   0.0000   0.0000   0.0000   0.0000   0.0000
     0.0000   0.0000   0.0000   0.0000   0.0000   0.0000   0.0000   0.0000
     0.0000   0.0000   0.0000   0.0000   0.0000   0.0000   0.0000   0.0000
     0.0000   0.0000   0.0000   0.0000   0.0000   0.0000   0.0000   0.0000
     0.0000   0.0000   0.0000   0.0000   0.0000   0.0000   0.0000   0.0000
     0.0000   0.0000   0.0000   0.0000   0.0000   0.0000   0.0000   0.0000
     0.0000   0.0000   0.0000   0.0000   0.0000   0.0000   0.0000   0.0000
     0.0000   0.0000   0.0000   0.0000   0.0000   0.0000   0.0000   0.0000
     0.0000   0.0000   0.0000   0.0000   0.0000   0.0000   0.0000   0.0000
     0.0000   0.0000   0.0000   0.0000   0.0000   0.0000   0.0000   0.0000
     0.0000   0.0000   0.0000   0.0000   0.0000   0.0000   0.0000   0.0000
     0.0000   0.0000   0.0000   0.0000   0.0000   0.0000   0.0000   0.0000
     0.0000   0.0000   0.0000   0.0000   0.0000   0.0000   0.0000   0.0000
     0.0000   0.0000   0.0000   0.0000   0.0000   0.0000   0.0000   0.0000
     0.0000   0.0000   0.0000   0.0000   0.0000   0.0000   0.0000   0.0000
     0.0000   0.0000   0.0000   0.0000   0.0000   0.0000   0.0000   0.0000
     0.0000   0.0000   0.0000   0.0000   0.0000   0.0000   0.0000   0.0000
     0.0000   0.0000   0.0000   0.0000   0.0000   0.0000   0.0000   0.0000
     0.0000   0.0000   0.0000   0.0000   0.0000   0.0000   0.0000   0.0000
     0.0000   0.0000   0.0000   0.0000   0.0000   0.0000

          k = 0.2500 0.2451-0.2500 (118458 PWs)   bands (ev):

   -98.9158 -98.8890 -98.8253 -98.7880 -98.7751 -98.7553 -98.7537 -98.7379
   -98.7141 -98.7065 -98.7012 -98.6956 -98.6891 -98.6850 -98.6823 -98.6750
   -98.6651 -98.6608 -98.6534 -98.6483 -98.6425 -98.6364 -98.6276 -98.6178
   -98.5960 -98.5951 -98.5949 -98.5798 -98.5645 -98.5576 -98.5523 -98.5299
   -98.5287 -98.5146 -98.5081 -98.4699 -98.4646 -98.4627 -98.4445 -98.4345
   -98.4285 -98.4254 -98.4219 -98.4168 -98.4121 -98.3956 -98.3925 -98.3561
   -98.3230 -56.3019 -56.3000 -56.2574 -56.2422 -56.2305 -56.2210 -56.1917
   -56.1885 -56.1636 -56.1504 -56.1442 -56.1288 -56.1266 -56.1150 -56.1148
   -56.1103 -56.1046 -56.1026 -56.1004 -56.0924 -56.0852 -56.0845 -56.0844
   -56.0844 -56.0802 -56.0715 -56.0693 -56.0651 -56.0594 -56.0593 -56.0562
   -56.0517 -56.0478 -56.0470 -56.0456 -56.0426 -56.0422 -56.0419 -56.0405
   -56.0341 -56.0338 -56.0336 -56.0267 -56.0226 -56.0211 -56.0087 -56.0056
   -56.0000 -55.9974 -55.9963 -55.9942 -55.9933 -55.9931 -55.9930 -55.9863
   -55.9856 -55.9811 -55.9807 -55.9790 -55.9756 -55.9717 -55.9710 -55.9676
   -55.9642 -55.9597 -55.9554 -55.9546 -55.9544 -55.9491 -55.9472 -55.9464
   -55.9464 -55.9438 -55.9437 -55.9402 -55.9339 -55.9314 -55.9258 -55.9257
   -55.9208 -55.9185 -55.9180 -55.9149 -55.9131 -55.9072 -55.9029 -55.9023
   -55.8993 -55.8941 -55.8890 -55.8866 -55.8839 -55.8704 -55.8634 -55.8623
   -55.8607 -55.8533 -55.8490 -55.8488 -55.8440 -55.8395 -55.8378 -55.8362
   -55.8329 -55.8324 -55.8283 -55.8269 -55.8225 -55.8202 -55.8197 -55.8118
   -55.8084 -55.8058 -55.8053 -55.7971 -55.7959 -55.7943 -55.7936 -55.7881
   -55.7876 -55.7806 -55.7794 -55.7725 -55.7642 -55.7638 -55.7604 -55.7559
   -55.7557 -55.7427 -55.7414 -55.7379 -55.7372 -55.7370 -55.7297 -55.7279
   -55.7209 -55.7175 -55.7112 -55.7108 -55.7092 -55.6991 -55.6874 -55.6811
   -55.6786 -55.6691 -55.6681 -55.6382 -34.7680 -34.6133 -34.5695 -34.5635
   -34.5463 -34.4873 -34.4856 -34.4772 -34.4710 -34.4647 -34.4598 -34.4521
   -34.4475 -34.4436 -34.4408 -34.4158 -34.4001 -34.3895 -34.3813 -34.3773
   -34.3722 -34.3604 -34.3553 -34.3523 -34.3499 -34.3477 -34.3443 -34.3251
   -34.3239 -34.3122 -34.3118 -34.3061 -34.3038 -34.2924 -34.2725 -34.2662
   -34.2440 -34.2386 -34.2237 -34.2146 -34.2113 -34.1821 -34.1763 -34.1535
   -34.1136 -34.0860 -34.0649 -33.9747 -33.8715 -12.8368 -12.8203 -12.8112
   -12.8049 -12.7953 -12.7865 -12.7794 -12.7756 -12.7680 -12.7577 -12.7509
   -12.7436 -12.7354 -12.7322 -12.7233 -12.7180 -12.7131 -12.7094 -12.7021
   -12.6938 -12.6893 -12.6858 -12.6822 -12.6690 -12.6668 -12.6651 -12.6622
   -12.6543 -12.6518 -12.6446 -12.6412 -12.6338 -12.6300 -12.6225 -12.6180
   -12.6159 -12.6140 -12.6061 -12.6030 -12.5996 -12.5916 -12.5852 -12.5790
   -12.5745 -12.5685 -12.5654 -12.5604 -12.5581 -12.5500 -12.5435 -12.5344
   -12.5315 -12.5261 -12.5237 -12.5193 -12.5114 -12.5035 -12.4981 -12.4916
   -12.4870 -12.4800 -12.4748 -12.4703 -12.4687 -12.4628 -12.4581 -12.4496
   -12.4483 -12.4433 -12.4376 -12.4318 -12.4273 -12.4219 -12.4150 -12.4110
   -12.4029 -12.3965 -12.3950 -12.3845 -12.3813 -12.3762 -12.3722 -12.3667
   -12.3614 -12.3557 -12.3533 -12.3459 -12.3428 -12.3370 -12.3320 -12.3229
   -12.3194 -12.3111 -12.3083 -12.3023 -12.2981 -12.2870 -12.2820 -12.2791
   -12.2745 -12.2721 -12.2659 -12.2643 -12.2567 -12.2537 -12.2510 -12.2435
   -12.2343 -12.2324 -12.2266 -12.2228 -12.2158 -12.2100 -12.2079 -12.1966
   -12.1898 -12.1845 -12.1817 -12.1680 -12.1613 -12.1586 -12.1522 -12.1476
   -12.1429 -12.1282 -12.1263 -12.1220 -12.1085 -12.0899 -12.0763 -12.0625
   -12.0505 -12.0444 -12.0313 -12.0235 -12.0177 -12.0070 -11.9817 -11.9331
   -11.9213 -11.9184 -11.8907 -11.8502 -11.8476 -11.8168 -11.7978 -11.7344
     7.0707   7.4296   7.5639   7.8669   8.1234   8.2218   8.3632   8.4911
     8.7022   8.7654   8.8844   8.9439   9.0587   9.1947   9.2434   9.3398
     9.4153   9.4394   9.5545   9.6176   9.6842   9.7142   9.7756   9.8150
     9.8479   9.8926   9.9397   9.9716  10.0263  10.0574  10.0775  10.0934
    10.1152  10.1247  10.1357  10.1451  10.1667  10.1755  10.1988  10.2175
    10.2231  10.2395  10.2457  10.2577  10.2750  10.3024  10.3073  10.3287
    10.3319  10.3452  10.3526  10.3679  10.3755  10.3852  10.3984  10.4081
    10.4166  10.4343  10.4432  10.4529  10.4557  10.4655  10.4718  10.4828
    10.4897  10.4970  10.5075  10.5215  10.5274  10.5324  10.5356  10.5445
    10.5544  10.5634  10.5710  10.5816  10.5888  10.5972  10.6014  10.6121
    10.6201  10.6236  10.6294  10.6392  10.6488  10.6512  10.6603  10.6665
    10.6736  10.6780  10.6845  10.6985  10.7001  10.7098  10.7193  10.7249
    10.7289  10.7338  10.7425  10.7491  10.7622  10.7635  10.7672  10.7790
    10.7853  10.7955  10.7973  10.8006  10.8099  10.8199  10.8253  10.8321
    10.8341  10.8428  10.8489  10.8544  10.8652  10.8708  10.8761  10.8858
    10.8946  10.8962  10.9057  10.9086  10.9204  10.9260  10.9306  10.9376
    10.9378  10.9443  10.9524  10.9597  10.9625  10.9704  10.9800  10.9829
    10.9915  10.9931  10.9999  11.0032  11.0119  11.0228  11.0247  11.0302
    11.0399  11.0421  11.0489  11.0600  11.0673  11.0694  11.0744  11.0809
    11.0848  11.0929  11.1005  11.1085  11.1100  11.1181  11.1257  11.1338
    11.1400  11.1412  11.1501  11.1522  11.1628  11.1670  11.1763  11.1859
    11.1919  11.1975  11.2006  11.2041  11.2130  11.2196  11.2238  11.2256
    11.2341  11.2395  11.2452  11.2521  11.2631  11.2712  11.2826  11.2878
    11.2965  11.3024  11.3079  11.3183  11.3274  11.3322  11.3409  11.3478
    11.3504  11.3536  11.3631  11.3679  11.3742  11.3835  11.3901  11.3999
    11.4106  11.4204  11.4264  11.4348  11.4386  11.4544  11.4571  11.4642
    11.4758  11.4802  11.4846  11.4927  11.5033  11.5134  11.5169  11.5282
    11.5322  11.5429  11.5484  11.5512  11.5607  11.5696  11.5816  11.5909
    11.5966  11.6018  11.6112  11.6171  11.6264  11.6375  11.6454  11.6548
    11.6624  11.6656  11.6765  11.6814  11.6860  11.6964  11.7044  11.7144
    11.7261  11.7317  11.7436  11.7489  11.7671  11.7765  11.7884  11.7946
    11.8034  11.8173  11.8193  11.8296  11.8365  11.8453  11.8575  11.8714
    11.8798  11.8873  11.9012  11.9143  11.9233  11.9356  11.9427  11.9512
    11.9637  11.9718  11.9812  11.9945  12.0116  12.0362  12.0439  12.0647
    12.0716  12.0849  12.1055  12.1153  12.1292  12.1666  12.1791  12.2015
    12.2196  12.2423  12.2604  12.3008  12.3279  12.3476  12.3753  12.4252
    12.4489  12.4708  12.5026  12.5252  12.5672  12.6166  12.6414  12.6721
    12.7052  12.7268  12.7495  12.7979  12.8173  12.8321  12.8706  12.9028
    12.9136  12.9859  13.0168  13.0494  13.0760  13.1210  13.1410  13.1509
    13.1731  13.2064  13.2269  13.2610  13.2986  13.3328  13.3512  13.3767
    13.4063  13.4183  13.4394  13.4618  13.4867  13.5194  13.5543  13.5668
    13.5995  13.6143  13.6395  13.6584  13.6762  13.6934  13.7116  13.7289
    13.7635  13.7851  13.7985  13.8270  13.8515  13.8585  13.8886  13.9071
    13.9417  13.9551  13.9748  13.9949  14.0064  14.0182  14.0291  14.0588
    14.0862  14.1085  14.1212  14.1355  14.1597  14.1818  14.1968  14.2172
    14.2282  14.2338  14.2610  14.2856  14.3141  14.3268  14.3442  14.3698
    14.3856  14.3979  14.4256  14.4396  14.4518  14.4652  14.4912  14.5062
    14.5184  14.5338  14.5549  14.5724  14.5966  14.6154  14.6448  14.6573
    14.6775  14.6949  14.7200  14.7426  14.7542  14.7695  14.7987  14.8196
    14.8294  14.8515  14.8848  14.9085  14.9225  14.9321  14.9557  14.9698
    14.9923  15.0154  15.0407  15.0608  15.0776  15.0961  15.1213  15.1553
    15.1726  15.2038  15.2220  15.2450  15.2777  15.3052  15.3258  15.3601
    15.4003  15.4051  15.4363  15.4489  15.4835  15.5171  15.5438  15.5531
    15.5995  15.6241  15.6431  15.6697  15.7220  15.7351  15.7648  15.7924
    15.8079  15.8649  15.8864  15.8968  15.9398  15.9758  16.0008  16.0663
    16.1040  16.1283  16.1629  16.1906  16.2274  16.2561  16.2855  16.3155
    16.3292  16.3803  16.4076  16.4295  16.4684  16.4933  16.5212  16.5486
    16.5616  16.5903  16.6142  16.6410  16.6949  16.7178  16.7562  16.7759
    16.8028  16.8502  16.8652  16.9075  16.9243  16.9726  16.9942  17.0133
    17.0386  17.0473  17.0917  17.1339  17.1558  17.1826  17.2004  17.2228
    17.2352  17.2623  17.3008  17.3466  17.3595  17.3830  17.4102  17.4417
    17.4634  17.4791  17.5220  17.5413  17.5522  17.5935  17.6124  17.6254
    17.6633  17.6978  17.7111  17.7256  17.7559  17.7682  17.7970  17.8223
    17.8490  17.8748  17.8904  17.9247  17.9360  17.9738  17.9786  18.0036
    18.0160  18.0670  18.0848  18.1195  18.1600  18.1722  18.2037  18.2414
    18.2533  18.2861  18.3004  18.3352  18.3579  18.3942  18.4111  18.4311
    18.4668  18.4868  18.5182  18.5481  18.5730  18.5926  18.6182  18.6472
    18.6814  18.7162  18.7426  18.7982  18.8439  18.8582  18.8854  18.9258
    18.9665  19.0075  19.0459  19.0918  19.1427  19.1666  19.1995  19.2333
    19.2878  19.3105  19.3573  19.3837  19.4493  19.4853  19.4985  19.5727
    19.6110  19.6247  19.7520  19.8078  19.8338  19.8932  19.9291  19.9829
    20.0513  20.1144  20.1494  20.2233  20.3172  20.3480  20.3879  20.4343
    20.4822  20.5422  20.5579  20.6152  20.6524  20.7356  20.7657  20.8395
    20.8616  20.8890  20.9299  21.0045  21.0627  21.0878  21.1467  21.1945
    21.2401  21.2770  21.3139  21.3242  21.3666  21.4113  21.4623  21.4924
    21.5434  21.5830  21.6176  21.6481  21.6720  21.7067  21.7402  21.7859
    21.8389  21.8700  21.9477  21.9813  21.9956  22.0592  22.0964  22.1220
    22.1777  22.2209  22.2663  22.2994  22.3395  22.3725  22.4210  22.4638
    22.4949  22.5479  22.5779  22.6245  22.6598  22.7320  22.7617  22.7745
    22.8216  22.8571  22.8948  22.9368  22.9781  23.0199  23.0585  23.0687
    23.1317  23.1709  23.2030  23.2298  23.2635  23.3074  23.3324  23.3977
    23.4216  23.4729  23.5003  23.5390  23.5784  23.6303  23.6446  23.6939
    23.7055  23.7233  23.7852  23.8129  23.9081  23.9187  23.9680  24.0001
    24.0384  24.0724  24.0990  24.1357  24.2013  24.2220  24.2366  24.2750
    24.3112  24.3663  24.3934  24.4368  24.4507  24.4866  24.5221  24.5594
    24.5955  24.6406  24.6797  24.7053  24.7511  24.7834  24.7953  24.8256
    24.8673  24.9128  24.9288  24.9682  24.9976  25.0433

     occupation numbers 
     1.0000   1.0000   1.0000   1.0000   1.0000   1.0000   1.0000   1.0000
     1.0000   1.0000   1.0000   1.0000   1.0000   1.0000   1.0000   1.0000
     1.0000   1.0000   1.0000   1.0000   1.0000   1.0000   1.0000   1.0000
     1.0000   1.0000   1.0000   1.0000   1.0000   1.0000   1.0000   1.0000
     1.0000   1.0000   1.0000   1.0000   1.0000   1.0000   1.0000   1.0000
     1.0000   1.0000   1.0000   1.0000   1.0000   1.0000   1.0000   1.0000
     1.0000   1.0000   1.0000   1.0000   1.0000   1.0000   1.0000   1.0000
     1.0000   1.0000   1.0000   1.0000   1.0000   1.0000   1.0000   1.0000
     1.0000   1.0000   1.0000   1.0000   1.0000   1.0000   1.0000   1.0000
     1.0000   1.0000   1.0000   1.0000   1.0000   1.0000   1.0000   1.0000
     1.0000   1.0000   1.0000   1.0000   1.0000   1.0000   1.0000   1.0000
     1.0000   1.0000   1.0000   1.0000   1.0000   1.0000   1.0000   1.0000
     1.0000   1.0000   1.0000   1.0000   1.0000   1.0000   1.0000   1.0000
     1.0000   1.0000   1.0000   1.0000   1.0000   1.0000   1.0000   1.0000
     1.0000   1.0000   1.0000   1.0000   1.0000   1.0000   1.0000   1.0000
     1.0000   1.0000   1.0000   1.0000   1.0000   1.0000   1.0000   1.0000
     1.0000   1.0000   1.0000   1.0000   1.0000   1.0000   1.0000   1.0000
     1.0000   1.0000   1.0000   1.0000   1.0000   1.0000   1.0000   1.0000
     1.0000   1.0000   1.0000   1.0000   1.0000   1.0000   1.0000   1.0000
     1.0000   1.0000   1.0000   1.0000   1.0000   1.0000   1.0000   1.0000
     1.0000   1.0000   1.0000   1.0000   1.0000   1.0000   1.0000   1.0000
     1.0000   1.0000   1.0000   1.0000   1.0000   1.0000   1.0000   1.0000
     1.0000   1.0000   1.0000   1.0000   1.0000   1.0000   1.0000   1.0000
     1.0000   1.0000   1.0000   1.0000   1.0000   1.0000   1.0000   1.0000
     1.0000   1.0000   1.0000   1.0000   1.0000   1.0000   1.0000   1.0000
     1.0000   1.0000   1.0000   1.0000   1.0000   1.0000   1.0000   1.0000
     1.0000   1.0000   1.0000   1.0000   1.0000   1.0000   1.0000   1.0000
     1.0000   1.0000   1.0000   1.0000   1.0000   1.0000   1.0000   1.0000
     1.0000   1.0000   1.0000   1.0000   1.0000   1.0000   1.0000   1.0000
     1.0000   1.0000   1.0000   1.0000   1.0000   1.0000   1.0000   1.0000
     1.0000   1.0000   1.0000   1.0000   1.0000   1.0000   1.0000   1.0000
     1.0000   1.0000   1.0000   1.0000   1.0000   1.0000   1.0000   1.0000
     1.0000   1.0000   1.0000   1.0000   1.0000   1.0000   1.0000   1.0000
     1.0000   1.0000   1.0000   1.0000   1.0000   1.0000   1.0000   1.0000
     1.0000   1.0000   1.0000   1.0000   1.0000   1.0000   1.0000   1.0000
     1.0000   1.0000   1.0000   1.0000   1.0000   1.0000   1.0000   1.0000
     1.0000   1.0000   1.0000   1.0000   1.0000   1.0000   1.0000   1.0000
     1.0000   1.0000   1.0000   1.0000   1.0000   1.0000   1.0000   1.0000
     1.0000   1.0000   1.0000   1.0000   1.0000   1.0000   1.0000   1.0000
     1.0000   1.0000   1.0000   1.0000   1.0000   1.0000   1.0000   1.0000
     1.0000   1.0000   1.0000   1.0000   1.0000   1.0000   1.0000   1.0000
     1.0000   1.0000   1.0000   1.0000   1.0000   1.0000   1.0000   1.0000
     1.0000   1.0000   1.0000   1.0000   1.0000   1.0000   1.0000   1.0000
     1.0000   1.0000   1.0000   1.0000   1.0000   1.0000   1.0000   1.0000
     1.0000   1.0000   1.0000   1.0000   1.0000   1.0000   1.0000   1.0000
     1.0000   1.0000   1.0000   1.0000   1.0000   1.0000   1.0000   1.0000
     1.0000   1.0000   1.0000   1.0000   1.0000   1.0000   1.0000   1.0000
     1.0000   1.0000   1.0000   1.0000   1.0000   1.0000   1.0000   1.0000
     1.0000   1.0000   1.0000   1.0000   1.0000   1.0000   1.0000   1.0000
     1.0000   1.0000   1.0000   1.0000   1.0000   1.0000   1.0000   1.0000
     1.0000   1.0000   1.0000   1.0000   1.0000   1.0000   1.0000   1.0000
     1.0000   1.0000   1.0000   1.0000   1.0000   1.0000   1.0000   1.0000
[...]
     atom   84 type  2   force =     0.00009179   -0.00002639    0.00009905
     atom   85 type  3   force =     0.00035407    0.00075557   -0.00031500
     atom   86 type  2   force =    -0.00023918    0.00017815    0.00002923
     atom   87 type  3   force =    -0.00235819   -0.00166012   -0.00419436
     atom   88 type  3   force =    -0.00339259    0.00129856   -0.00114490
     atom   89 type  1   force =     0.00032505    0.00022056   -0.00075171
     atom   90 type  3   force =    -0.00097380   -0.00112012    0.00372813
     atom   91 type  2   force =    -0.00004743    0.00018497    0.00014518
     atom   92 type  2   force =     0.00006008   -0.00019611   -0.00002711
     atom   93 type  2   force =    -0.00010137    0.00022312   -0.00011068
     atom   94 type  2   force =    -0.00002636    0.00046527   -0.00015455
     atom   95 type  2   force =    -0.00008059   -0.00016027    0.00015722
     atom   96 type  3   force =    -0.00016034    0.00104792   -0.00112897
     atom   97 type  3   force =    -0.00028622    0.00006639    0.00042846
     atom   98 type  2   force =     0.00002680   -0.00010631    0.00026626
     atom   99 type  2   force =    -0.00002058    0.00009472   -0.00034111
     atom  100 type  3   force =    -0.00132713   -0.00126715    0.00034210
     The Hubbard contrib.    to forces
     atom    1 type  2   force =     0.00000000    0.00000000    0.00000000
     atom    2 type  3   force =     0.00000000    0.00000000    0.00000000
     atom    3 type  2   force =     0.00000000    0.00000000    0.00000000
     atom    4 type  2   force =     0.00000000    0.00000000    0.00000000
     atom    5 type  3   force =     0.00000000    0.00000000    0.00000000
     atom    6 type  2   force =     0.00000000    0.00000000    0.00000000
     atom    7 type  2   force =     0.00000000    0.00000000    0.00000000
     atom    8 type  2   force =     0.00000000    0.00000000    0.00000000
     atom    9 type  3   force =     0.00000000    0.00000000    0.00000000
     atom   10 type  2   force =     0.00000000    0.00000000    0.00000000
     atom   11 type  3   force =     0.00000000    0.00000000    0.00000000
     atom   12 type  3   force =     0.00000000    0.00000000    0.00000000
     atom   13 type  3   force =     0.00000000    0.00000000    0.00000000
     atom   14 type  3   force =     0.00000000    0.00000000    0.00000000
     atom   15 type  2   force =     0.00000000    0.00000000    0.00000000
     atom   16 type  3   force =     0.00000000    0.00000000    0.00000000
     atom   17 type  2   force =     0.00000000    0.00000000    0.00000000
     atom   18 type  2   force =     0.00000000    0.00000000    0.00000000
     atom   19 type  3   force =     0.00000000    0.00000000    0.00000000
     atom   20 type  2   force =     0.00000000    0.00000000    0.00000000
     atom   21 type  2   force =     0.00000000    0.00000000    0.00000000
     atom   22 type  2   force =     0.00000000    0.00000000    0.00000000
     atom   23 type  3   force =     0.00000000    0.00000000    0.00000000
     atom   24 type  2   force =     0.00000000    0.00000000    0.00000000
     atom   25 type  2   force =     0.00000000    0.00000000    0.00000000
     atom   26 type  3   force =     0.00000000    0.00000000    0.00000000
     atom   27 type  2   force =     0.00000000    0.00000000    0.00000000
     atom   28 type  2   force =     0.00000000    0.00000000    0.00000000
     atom   29 type  3   force =     0.00000000    0.00000000    0.00000000
     atom   30 type  2   force =     0.00000000    0.00000000    0.00000000
     atom   31 type  3   force =     0.00000000    0.00000000    0.00000000
     atom   32 type  3   force =     0.00000000    0.00000000    0.00000000
     atom   33 type  3   force =     0.00000000    0.00000000    0.00000000
     atom   34 type  1   force =     0.00000000    0.00000000    0.00000000
     atom   35 type  2   force =     0.00000000    0.00000000    0.00000000
     atom   36 type  2   force =     0.00000000    0.00000000    0.00000000
     atom   37 type  3   force =     0.00000000    0.00000000    0.00000000
     atom   38 type  3   force =     0.00000000    0.00000000    0.00000000
     atom   39 type  2   force =     0.00000000    0.00000000    0.00000000
     atom   40 type  3   force =     0.00000000    0.00000000    0.00000000
     atom   41 type  3   force =     0.00000000    0.00000000    0.00000000
     atom   42 type  3   force =     0.00000000    0.00000000    0.00000000
     atom   43 type  2   force =     0.00000000    0.00000000    0.00000000
     atom   44 type  3   force =     0.00000000    0.00000000    0.00000000
     atom   45 type  2   force =     0.00000000    0.00000000    0.00000000
     atom   46 type  3   force =     0.00000000    0.00000000    0.00000000
     atom   47 type  3   force =     0.00000000    0.00000000    0.00000000
     atom   48 type  3   force =     0.00000000    0.00000000    0.00000000
     atom   49 type  2   force =     0.00000000    0.00000000    0.00000000
     atom   50 type  3   force =     0.00000000    0.00000000    0.00000000
     atom   51 type  3   force =     0.00000000    0.00000000    0.00000000
     atom   52 type  3   force =     0.00000000    0.00000000    0.00000000
     atom   53 type  2   force =     0.00000000    0.00000000    0.00000000
     atom   54 type  3   force =     0.00000000    0.00000000    0.00000000
     atom   55 type  3   force =     0.00000000    0.00000000    0.00000000
     atom   56 type  2   force =     0.00000000    0.00000000    0.00000000
     atom   57 type  3   force =     0.00000000    0.00000000    0.00000000
     atom   58 type  2   force =     0.00000000    0.00000000    0.00000000
     atom   59 type  3   force =     0.00000000    0.00000000    0.00000000
     atom   60 type  3   force =     0.00000000    0.00000000    0.00000000
     atom   61 type  2   force =     0.00000000    0.00000000    0.00000000
     atom   62 type  3   force =     0.00000000    0.00000000    0.00000000
     atom   63 type  2   force =     0.00000000    0.00000000    0.00000000
     atom   64 type  2   force =     0.00000000    0.00000000    0.00000000
     atom   65 type  3   force =     0.00000000    0.00000000    0.00000000
     atom   66 type  2   force =     0.00000000    0.00000000    0.00000000
     atom   67 type  2   force =     0.00000000    0.00000000    0.00000000
     atom   68 type  2   force =     0.00000000    0.00000000    0.00000000
     atom   69 type  2   force =     0.00000000    0.00000000    0.00000000
     atom   70 type  3   force =     0.00000000    0.00000000    0.00000000
     atom   71 type  2   force =     0.00000000    0.00000000    0.00000000
     atom   72 type  2   force =     0.00000000    0.00000000    0.00000000
     atom   73 type  3   force =     0.00000000    0.00000000    0.00000000
     atom   74 type  2   force =     0.00000000    0.00000000    0.00000000
     atom   75 type  2   force =     0.00000000    0.00000000    0.00000000
     atom   76 type  3   force =     0.00000000    0.00000000    0.00000000
     atom   77 type  3   force =     0.00000000    0.00000000    0.00000000
     atom   78 type  2   force =     0.00000000    0.00000000    0.00000000
     atom   79 type  3   force =     0.00000000    0.00000000    0.00000000
     atom   80 type  2   force =     0.00000000    0.00000000    0.00000000
     atom   81 type  3   force =     0.00000000    0.00000000    0.00000000
     atom   82 type  3   force =     0.00000000    0.00000000    0.00000000
     atom   83 type  3   force =     0.00000000    0.00000000    0.00000000
     atom   84 type  2   force =     0.00000000    0.00000000    0.00000000
     atom   85 type  3   force =     0.00000000    0.00000000    0.00000000
     atom   86 type  2   force =     0.00000000    0.00000000    0.00000000
     atom   87 type  3   force =     0.00000000    0.00000000    0.00000000
     atom   88 type  3   force =     0.00000000    0.00000000    0.00000000
     atom   89 type  1   force =     0.00000000    0.00000000    0.00000000
     atom   90 type  3   force =     0.00000000    0.00000000    0.00000000
     atom   91 type  2   force =     0.00000000    0.00000000    0.00000000
     atom   92 type  2   force =     0.00000000    0.00000000    0.00000000
     atom   93 type  2   force =     0.00000000    0.00000000    0.00000000
     atom   94 type  2   force =     0.00000000    0.00000000    0.00000000
     atom   95 type  2   force =     0.00000000    0.00000000    0.00000000
     atom   96 type  3   force =     0.00000000    0.00000000    0.00000000
     atom   97 type  3   force =     0.00000000    0.00000000    0.00000000
     atom   98 type  2   force =     0.00000000    0.00000000    0.00000000
     atom   99 type  2   force =     0.00000000    0.00000000    0.00000000
     atom  100 type  3   force =     0.00000000    0.00000000    0.00000000
     The SCF correction term to forces
     atom    1 type  2   force =    -0.00002656   -0.00035698   -0.00010222
     atom    2 type  3   force =    -0.00012718   -0.00025006    0.00002266
     atom    3 type  2   force =     0.00004355   -0.00051818    0.00018654
     atom    4 type  2   force =    -0.00055519   -0.00051202    0.00041409
     atom    5 type  3   force =    -0.00028309   -0.00027413   -0.00003303
     atom    6 type  2   force =    -0.00097750   -0.00030201   -0.00005232
     atom    7 type  2   force =    -0.00054150   -0.00063648   -0.00048135
     atom    8 type  2   force =    -0.00037529    0.00003056   -0.00008315
     atom    9 type  3   force =     0.00015727   -0.00007648   -0.00004147
     atom   10 type  2   force =    -0.00004642   -0.00016580    0.00013141
     atom   11 type  3   force =    -0.00021644    0.00034111   -0.00012775
     atom   12 type  3   force =     0.00005822    0.00027308   -0.00003674
     atom   13 type  3   force =    -0.00032272   -0.00031183   -0.00006208
     atom   14 type  3   force =    -0.00005681    0.00018645    0.00010952
     atom   15 type  2   force =    -0.00043047    0.00058800   -0.00003878
     atom   16 type  3   force =    -0.00033623    0.00024591   -0.00012002
     atom   17 type  2   force =    -0.00009296    0.00051140    0.00002090
     atom   18 type  2   force =     0.00005510    0.00076330    0.00031861
     atom   19 type  3   force =    -0.00023159    0.00026783    0.00005521
     atom   20 type  2   force =    -0.00007678    0.00077418    0.00046937
     atom   21 type  2   force =    -0.00046344   -0.00028126   -0.00052664
     atom   22 type  2   force =    -0.00024856   -0.00006176   -0.00019007
     atom   23 type  3   force =    -0.00020278   -0.00012143    0.00006963
     atom   24 type  2   force =    -0.00039458    0.00038125    0.00015722
     atom   25 type  2   force =    -0.00077385   -0.00013445    0.00013565
     atom   26 type  3   force =    -0.00018322   -0.00028156    0.00004926
     atom   27 type  2   force =    -0.00017125   -0.00057187   -0.00002629
     atom   28 type  2   force =    -0.00035096   -0.00037631   -0.00015575
     atom   29 type  3   force =    -0.00024894   -0.00018691    0.00003335
     atom   30 type  2   force =    -0.00038462   -0.00001133   -0.00011081
     atom   31 type  3   force =     0.00016798   -0.00023034    0.00006669
     atom   32 type  3   force =    -0.00025798   -0.00021376    0.00004986
     atom   33 type  3   force =     0.00012253    0.00021585   -0.00012639
     atom   34 type  1   force =    -0.00004277    0.00004892    0.00000071
     atom   35 type  2   force =    -0.00050232   -0.00015680    0.00010923
     atom   36 type  2   force =    -0.00020645    0.00027552    0.00011959
     atom   37 type  3   force =    -0.00022695    0.00011133    0.00012033
     atom   38 type  3   force =    -0.00017170    0.00026727   -0.00010000
     atom   39 type  2   force =    -0.00034537    0.00066763   -0.00011265
     atom   40 type  3   force =    -0.00016581    0.00033770   -0.00003226
     atom   41 type  3   force =    -0.00017289    0.00035778   -0.00003023
     atom   42 type  3   force =    -0.00021003    0.00020974    0.00011397
     atom   43 type  2   force =    -0.00031427    0.00043888    0.00027858
     atom   44 type  3   force =     0.00001086    0.00020331   -0.00003563
     atom   45 type  2   force =    -0.00027076    0.00022246   -0.00005363
     atom   46 type  3   force =     0.00005268   -0.00028347    0.00014070
     atom   47 type  3   force =    -0.00009370    0.00003907   -0.00010647
     atom   48 type  3   force =    -0.00024726   -0.00021491   -0.00012016
     atom   49 type  2   force =    -0.00027646   -0.00045841    0.00012859
     atom   50 type  3   force =    -0.00045568   -0.00021824   -0.00000038
     atom   51 type  3   force =     0.00021279   -0.00026865   -0.00013994
     atom   52 type  3   force =     0.00010306   -0.00049861   -0.00019848
     atom   53 type  2   force =    -0.00034834   -0.00062536   -0.00004203
     atom   54 type  3   force =     0.00002878   -0.00018063    0.00006868
     atom   55 type  3   force =     0.00059490   -0.00029092    0.00005744
     atom   56 type  2   force =     0.00073577    0.00100799   -0.00038247
     atom   57 type  3   force =     0.00005275    0.00010443   -0.00017689
     atom   58 type  2   force =    -0.00019661    0.00005319    0.00013704
     atom   59 type  3   force =     0.00025055   -0.00024253    0.00037330
     atom   60 type  3   force =     0.00029534    0.00005386   -0.00003630
     atom   61 type  2   force =     0.00026862   -0.00005178    0.00000928
     atom   62 type  3   force =     0.00025027    0.00037909   -0.00012824
     atom   63 type  2   force =     0.00039328    0.00089686   -0.00055970
     atom   64 type  2   force =     0.00035648    0.00038321   -0.00048883
     atom   65 type  3   force =     0.00007788    0.00043335    0.00024997
     atom   66 type  2   force =     0.00017796    0.00053344    0.00028288
     atom   67 type  2   force =     0.00066138    0.00072846    0.00012220
     atom   68 type  2   force =     0.00072635   -0.00021397   -0.00001063
     atom   69 type  2   force =     0.00029797   -0.00053599   -0.00020447
     atom   70 type  3   force =     0.00019500   -0.00031402    0.00000338
     atom   71 type  2   force =     0.00005824    0.00010662    0.00011155
     atom   72 type  2   force =     0.00091039   -0.00032635    0.00012301
     atom   73 type  3   force =     0.00034376    0.00009477    0.00025269
     atom   74 type  2   force =     0.00090279   -0.00051475   -0.00005783
     atom   75 type  2   force =     0.00029239   -0.00000148   -0.00064062
     atom   76 type  3   force =     0.00003762   -0.00042010   -0.00019137
     atom   77 type  3   force =     0.00022209   -0.00037855    0.00022926
     atom   78 type  2   force =     0.00016968   -0.00077164    0.00068794
     atom   79 type  3   force =     0.00038696   -0.00045668    0.00040244
     atom   80 type  2   force =     0.00018586   -0.00093071    0.00010487
     atom   81 type  3   force =     0.00016901   -0.00038500   -0.00043271
     atom   82 type  3   force =    -0.00012384   -0.00006438   -0.00026377
     atom   83 type  3   force =     0.00011550    0.00051937   -0.00037798
     atom   84 type  2   force =     0.00040886    0.00033865   -0.00007292
     atom   85 type  3   force =     0.00009908   -0.00040750    0.00029438
     atom   86 type  2   force =    -0.00007007    0.00003195    0.00024604
     atom   87 type  3   force =    -0.00009031    0.00051549   -0.00001527
     atom   88 type  3   force =     0.00020853    0.00020296   -0.00030382
     atom   89 type  1   force =    -0.00004730    0.00008214   -0.00006882
     atom   90 type  3   force =     0.00016552    0.00050134   -0.00014841
     atom   91 type  2   force =     0.00032469    0.00039898    0.00045112
     atom   92 type  2   force =     0.00035472    0.00085064    0.00063262
     atom   93 type  2   force =     0.00036425    0.00069813    0.00071350
     atom   94 type  2   force =    -0.00032402   -0.00028422   -0.00042087
     atom   95 type  2   force =     0.00031604   -0.00076206   -0.00044232
     atom   96 type  3   force =     0.00006639   -0.00021332   -0.00002453
     atom   97 type  3   force =    -0.00002994    0.00018796    0.00027102
     atom   98 type  2   force =     0.00058983    0.00039803    0.00026228
     atom   99 type  2   force =     0.00073701   -0.00003883    0.00019542
     atom  100 type  3   force =     0.00011866    0.00010204    0.00006902

     Total force =     0.283883     Total SCF correction =     0.005880

     Writing output data file Zr49Cu49Al2.save
 
     init_run     :     40.80s CPU     41.79s WALL (       1 calls)
     electrons    :   6289.23s CPU   6391.71s WALL (       1 calls)
     forces       :     26.81s CPU     27.49s WALL (       1 calls)

     Called by init_run:
     wfcinit      :     31.43s CPU     31.82s WALL (       1 calls)
     wfcinit:atom :      0.06s CPU      0.09s WALL (       1 calls)
     wfcinit:wfcr :     31.10s CPU     31.37s WALL (       1 calls)
     potinit      :      2.25s CPU      2.33s WALL (       1 calls)

     Called by electrons:
     c_bands      :   5366.07s CPU   5422.97s WALL (      57 calls)
     sum_band     :    777.98s CPU    800.99s WALL (      57 calls)
     v_of_rho     :     22.69s CPU     23.51s WALL (      58 calls)
     v_h          :      2.18s CPU      2.26s WALL (      58 calls)
     v_xc         :     20.87s CPU     21.61s WALL (      59 calls)
     newd         :    104.75s CPU    125.20s WALL (      58 calls)
     PAW_pot      :      9.96s CPU     10.48s WALL (      58 calls)
     mix_rho      :      5.82s CPU      6.21s WALL (      57 calls)

     Called by c_bands:
     init_us_2    :     10.32s CPU     10.46s WALL (     115 calls)
     cegterg      :   5259.60s CPU   5313.86s WALL (      57 calls)

     Called by sum_band:
     sum_band:bec :      1.61s CPU      1.63s WALL (      57 calls)
     addusdens    :    137.98s CPU    157.32s WALL (      57 calls)

     Called by *egterg:
     h_psi        :   2181.36s CPU   2192.85s WALL (     153 calls)
     s_psi        :    496.32s CPU    497.65s WALL (     153 calls)
     g_psi        :      2.97s CPU      2.97s WALL (      95 calls)
     cdiaghg      :   1173.03s CPU   1188.95s WALL (     152 calls)
     cegterg:over :    578.70s CPU    581.64s WALL (      95 calls)
     cegterg:upda :    335.03s CPU    336.66s WALL (      95 calls)
     cegterg:last :    294.98s CPU    295.13s WALL (      57 calls)
     cdiaghg:chol :     57.89s CPU     58.49s WALL (     152 calls)
     cdiaghg:inve :     69.07s CPU     69.50s WALL (     152 calls)
     cdiaghg:para :    173.06s CPU    179.74s WALL (     304 calls)

     Called by h_psi:
     h_psi:pot    :   2172.04s CPU   2183.51s WALL (     153 calls)
     h_psi:calbec :    471.15s CPU    472.03s WALL (     153 calls)
     vloc_psi     :   1207.67s CPU   1216.83s WALL (     153 calls)
     add_vuspsi   :    493.21s CPU    494.64s WALL (     153 calls)

     General routines
     calbec       :    714.82s CPU    716.15s WALL (     214 calls)
     fft          :     30.08s CPU     31.41s WALL (     935 calls)
     ffts         :      0.73s CPU      0.75s WALL (     115 calls)
     fftw         :   1082.70s CPU   1091.43s WALL (  318892 calls)
     interpolate  :      4.61s CPU      4.85s WALL (     115 calls)
 
     Parallel routines
     fft_scatt_xy :     92.76s CPU     93.28s WALL (  319942 calls)
     fft_scatt_yz :    209.80s CPU    212.49s WALL (  319942 calls)

     PAW routines
     PAW_pot      :      9.96s CPU     10.48s WALL (      58 calls)
 
     PWSCF        :     1h46m CPU        1h54m WALL

 
   This run was terminated on:  19:24: 3  19Apr2019            

=------------------------------------------------------------------------------=
   JOB DONE.
=------------------------------------------------------------------------------=
